                         Program Version 4.2.1 -  RELEASE  -
|  1> ! PBE0
|  2> ! opt
|  3> *xyzfile 0 1 Dihydrogen.xyz **                         ****END OF INPUT****
 Total Charge           Charge          ....    0
 Multiplicity           Mult            ....    1
 Number of Electrons    NEL             ....    2
FINAL SINGLE POINT ENERGY        -1.161720363715
FINAL SINGLE POINT ENERGY        -1.163306672649
FINAL SINGLE POINT ENERGY        -1.163748832291
FINAL SINGLE POINT ENERGY        -1.163759867461
FINAL SINGLE POINT ENERGY        -1.163760054090
                    ***********************HURRAY********************

CARTESIAN COORDINATES (ANGSTROEM)
---------------------------------
  H      0.000000    0.000000    0.380275
  H      0.000000    0.000000   -0.380275

 Multiplicity           Mult            ....    1
 Number of Electrons    NEL             ....    2
 Basis Dimension        Dim             ....   10

ORBITAL ENERGIES
----------------

  NO   OCC          E(Eh)            E(eV)
   0   2.0000      -0.433438       -11.7945
   1   0.0000       0.086205         2.3458
   2   0.0000       0.352385         9.5889
   3   0.0000       0.734572        19.9887
   4   0.0000       1.176147        32.0046
   5   0.0000       1.176147        32.0046

MULLIKEN ATOMIC CHARGES
-----------------------
   0 H :    0.000000
   1 H :   -0.000000
Sum of atomic charges:    0.0000000

LOEWDIN ATOMIC CHARGES
----------------------
   0 H :   -0.000000
   1 H :   -0.000000

  Mayer bond orders larger than 0.100000
B(  0-H ,  1-H ) :   1.0000

FINAL SINGLE POINT ENERGY        -1.163760053009

DIPOLE MOMENT
-------------
                                X             Y             Z
Electronic contribution:     -0.00000       0.00000       0.00000
Nuclear contribution   :      0.00000       0.00000       0.00000
                        -----------------------------------------
Total Dipole Moment    :     -0.00000       0.00000       0.00000
                        -----------------------------------------
Magnitude (a.u.)       :      0.00000
Magnitude (Debye)      :      0.00000

Rotational constants in cm-1:     0.000000    57.824388    57.824388
Rotational constants in MHz :     0.000000 1733531.553003 1733531.553003

                             ****ORCA TERMINATED NORMALLY****
TOTAL RUN TIME: 0 days 0 hours 0 minutes 16 seconds 360 msec
