                         Program Version 4.2.1 -  RELEASE  -
|  1> ! PBE0 D3BJ RIJCOSX CPCM(Water)
|  2> % tddft
|  3> nroots 50
|  4> maxdim 5
|  5> end
|  6> * xyzfile 2 4 vanadium.xyz **                         ****END OF INPUT****

CARTESIAN COORDINATES (ANGSTROEM)
---------------------------------
  V     -3.980875    1.289715    0.060208
  O     -3.972310    3.361033   -0.462505
  O     -3.993848   -0.780874    0.585547
  O     -1.921917    1.407449    0.619142
  O     -6.038506    1.172517   -0.498659
  O     -4.540522    1.797017    2.058050
  O     -3.428583    0.783616   -1.940582
  H     -4.719300    3.868218   -0.809472
  H     -4.740175   -1.392402    0.517282
  H     -1.576985    1.639370    1.492489
  H     -6.806170    1.321278    0.070537
  H     -4.695918    2.686513    2.404606
  H     -3.258509    1.401998   -2.664623
  H     -6.381782    0.934322   -1.370955
  H     -3.227416    3.974308   -0.394276
  H     -3.264776   -0.103165   -2.290188
  H     -1.154748    1.262610    0.048243
  H     -3.247833   -1.290986    0.930367
  H     -4.712647    1.182992    2.785290

 Total Charge           Charge          ....    2
 Multiplicity           Mult            ....    4
 Number of Electrons    NEL             ....   81
 Basis Dimension        Dim             ....  175

ORBITAL ENERGIES
----------------
                 SPIN UP ORBITALS
  NO   OCC          E(Eh)            E(eV)
   0   1.0000    -197.040111     -5361.7340
   1   1.0000     -22.277997      -606.2151
   2   1.0000     -19.253110      -523.9038
   3   1.0000     -19.253072      -523.9027
   4   1.0000     -19.252975      -523.9001
   5   1.0000     -19.252914      -523.8984
   6   1.0000     -19.252840      -523.8964
   7   1.0000     -19.252785      -523.8949
   8   1.0000     -18.752663      -510.2859
   9   1.0000     -18.752648      -510.2855
  10   1.0000     -18.752634      -510.2851
  11   1.0000      -2.649628       -72.1000
  12   1.0000      -1.673982       -45.5514
  13   1.0000      -1.673950       -45.5505
  14   1.0000      -1.673884       -45.5487
  15   1.0000      -1.063075       -28.9277
  16   1.0000      -1.056328       -28.7441
  17   1.0000      -1.056180       -28.7401
  18   1.0000      -1.056066       -28.7370
  19   1.0000      -1.055796       -28.7297
  20   1.0000      -1.055641       -28.7255
  21   1.0000      -0.580109       -15.7856
  22   1.0000      -0.579972       -15.7818
  23   1.0000      -0.579789       -15.7769
  24   1.0000      -0.578919       -15.7532
  25   1.0000      -0.578857       -15.7515
  26   1.0000      -0.578711       -15.7475
  27   1.0000      -0.506385       -13.7794
  28   1.0000      -0.473343       -12.8803
  29   1.0000      -0.473130       -12.8745
  30   1.0000      -0.464275       -12.6336
  31   1.0000      -0.463885       -12.6230
  32   1.0000      -0.463395       -12.6096
  33   1.0000      -0.375223       -10.2103
  34   1.0000      -0.375100       -10.2070
  35   1.0000      -0.374645       -10.1946
  36   1.0000      -0.368818       -10.0360
  37   1.0000      -0.368415       -10.0251
  38   1.0000      -0.368064       -10.0155
  39   1.0000      -0.198323        -5.3966
  40   1.0000      -0.197984        -5.3874
  41   1.0000      -0.197875        -5.3845
  42   0.0000      -0.009224        -0.2510
  43   0.0000       0.033221         0.9040
  44   0.0000       0.033363         0.9079
  45   0.0000       0.065489         1.7821
  46   0.0000       0.065678         1.7872

                 SPIN DOWN ORBITALS
  NO   OCC          E(Eh)            E(eV)
   0   1.0000    -197.039881     -5361.7277
   1   1.0000     -22.239348      -605.1634
   2   1.0000     -19.253102      -523.9035
   3   1.0000     -19.253062      -523.9025
   4   1.0000     -19.252957      -523.8996
   5   1.0000     -19.252897      -523.8980
   6   1.0000     -19.252837      -523.8963
   7   1.0000     -19.252781      -523.8948
   8   1.0000     -18.719688      -509.3886
   9   1.0000     -18.719620      -509.3868
  10   1.0000     -18.719583      -509.3858
  11   1.0000      -2.528810       -68.8124
  12   1.0000      -1.542719       -41.9795
  13   1.0000      -1.542497       -41.9735
  14   1.0000      -1.542349       -41.9695
  15   1.0000      -1.062378       -28.9088
  16   1.0000      -1.055577       -28.7237
  17   1.0000      -1.055423       -28.7195
  18   1.0000      -1.055353       -28.7176
  19   1.0000      -1.055314       -28.7166
  20   1.0000      -1.055194       -28.7133
  21   1.0000      -0.578946       -15.7539
  22   1.0000      -0.578817       -15.7504
  23   1.0000      -0.578649       -15.7458
  24   1.0000      -0.578323       -15.7370
  25   1.0000      -0.578254       -15.7351
  26   1.0000      -0.578118       -15.7314
  27   1.0000      -0.502271       -13.6675
  28   1.0000      -0.471505       -12.8303
  29   1.0000      -0.471257       -12.8236
  30   1.0000      -0.463695       -12.6178
  31   1.0000      -0.463334       -12.6080
  32   1.0000      -0.462825       -12.5941
  33   1.0000      -0.369349       -10.0505
  34   1.0000      -0.369250       -10.0478
  35   1.0000      -0.368830       -10.0364
  36   1.0000      -0.366660        -9.9773
  37   1.0000      -0.366273        -9.9668
  38   1.0000      -0.365951        -9.9580
  39   0.0000      -0.007930        -0.2158
  40   0.0000       0.063857         1.7376
  41   0.0000       0.064103         1.7443
  42   0.0000       0.064625         1.7585
  43   0.0000       0.066872         1.8197

MULLIKEN ATOMIC CHARGES AND SPIN POPULATIONS
--------------------------------------------
   0 V :    0.909625    3.045132
   1 O :   -0.294434   -0.011157
   2 O :   -0.294419   -0.011144
   3 O :   -0.295134   -0.011270
   4 O :   -0.295051   -0.011305
   5 O :   -0.294831   -0.011379
   6 O :   -0.294913   -0.011393
   7 H :    0.238413    0.001917
   8 H :    0.237781    0.001882
   9 H :    0.238104    0.001898
  10 H :    0.238688    0.001816
  11 H :    0.238043    0.001898
  12 H :    0.238443    0.001843
  13 H :    0.238081    0.001899
  14 H :    0.237873    0.001887
  15 H :    0.238187    0.001898
  16 H :    0.238681    0.001813
  17 H :    0.238392    0.001925
  18 H :    0.238471    0.001841
Sum of atomic charges         :    2.0000000

LOEWDIN ATOMIC CHARGES AND SPIN POPULATIONS
-------------------------------------------
   0 V :    0.318653    2.972962
   1 O :    0.017992    0.000602
   2 O :    0.017924    0.000614
   3 O :    0.017483    0.000487
   4 O :    0.017903    0.000483
   5 O :    0.017871    0.000486
   6 O :    0.017723    0.000465
   7 H :    0.131103    0.002010
   8 H :    0.131014    0.001987
   9 H :    0.131121    0.002010
  10 H :    0.131374    0.001961
  11 H :    0.131217    0.002012
  12 H :    0.131294    0.001969
  13 H :    0.131048    0.002012
  14 H :    0.131050    0.001991
  15 H :    0.131339    0.002006
  16 H :    0.131407    0.001961
  17 H :    0.131130    0.002018
  18 H :    0.131354    0.001963

  Mayer bond orders larger than 0.100000
B(  0-V ,  1-O ) :   0.3335 B(  0-V ,  2-O ) :   0.3336 B(  0-V ,  3-O ) :   0.3331
B(  0-V ,  4-O ) :   0.3334 B(  0-V ,  5-O ) :   0.3334 B(  0-V ,  6-O ) :   0.3333
B(  1-O ,  7-H ) :   0.9460 B(  1-O , 14-H ) :   0.9466 B(  2-O ,  8-H ) :   0.9466
B(  2-O , 17-H ) :   0.9460 B(  3-O ,  9-H ) :   0.9462 B(  3-O , 16-H ) :   0.9465
B(  4-O , 10-H ) :   0.9465 B(  4-O , 13-H ) :   0.9461 B(  5-O , 11-H ) :   0.9464
B(  5-O , 18-H ) :   0.9465 B(  6-O , 12-H ) :   0.9465 B(  6-O , 15-H ) :   0.9464

-----------------------------------------------------------------------------
         ABSORPTION SPECTRUM VIA TRANSITION ELECTRIC DIPOLE MOMENTS
-----------------------------------------------------------------------------
State   Energy    Wavelength  fosc         T2        TX        TY        TZ
        (cm-1)      (nm)                 (au**2)    (au)      (au)      (au)
-----------------------------------------------------------------------------
   1   14344.7    697.1   0.000000000   0.00000   0.00001  -0.00008   0.00001
   2   14372.1    695.8   0.000000001   0.00000  -0.00007   0.00001   0.00016
   3   14601.3    684.9   0.000000001   0.00000   0.00004  -0.00012  -0.00002
   4   19990.2    500.2   0.000000001   0.00000   0.00005   0.00002  -0.00008
   5   20030.9    499.2   0.000000002   0.00000   0.00014  -0.00003  -0.00008
   6   20101.0    497.5   0.000000000   0.00000  -0.00004   0.00003   0.00000
   7   31250.1    320.0   0.000000013   0.00000   0.00030   0.00019  -0.00012
   8   31276.3    319.7   0.000000012   0.00000  -0.00028   0.00021   0.00005
   9   31348.1    319.0   0.000000049   0.00000  -0.00004  -0.00069   0.00017
  10   45888.3    217.9   0.000075641   0.00054  -0.01906  -0.00548  -0.01222
  11   45938.2    217.7   0.000077451   0.00056   0.01281  -0.01200  -0.01571
  12   45925.5    217.7   0.000061437   0.00044  -0.00229   0.01896  -0.00870
  13   46061.5    217.1   0.001044000   0.00746   0.03032  -0.03101  -0.07470
  14   46155.8    216.7   0.001072484   0.00765  -0.00627  -0.07900   0.03700
  15   47223.6    211.8   0.000296079   0.00206   0.04305  -0.00399   0.01395
  16   46604.1    214.6   0.000772954   0.00546   0.07162   0.00961   0.01545
  17   47207.7    211.8   0.000003513   0.00002  -0.00061   0.00486   0.00072
  18   46998.8    212.8   0.000022059   0.00015  -0.01029   0.00382  -0.00583
  19   55029.0    181.7   0.000000355   0.00000   0.00053  -0.00040  -0.00130
  20   55120.2    181.4   0.000000146   0.00000   0.00025   0.00057  -0.00070
  21   55196.3    181.2   0.000000025   0.00000  -0.00018  -0.00022  -0.00025
  22   55503.9    180.2   0.000000001   0.00000  -0.00005   0.00007  -0.00001
  23   55495.7    180.2   0.000000026   0.00000  -0.00004   0.00009  -0.00038
  24   55467.7    180.3   0.000000006   0.00000  -0.00010  -0.00012   0.00011
  25   63274.5    158.0   0.000000091   0.00000  -0.00048  -0.00041   0.00028
  26   63234.0    158.1   0.000000154   0.00000   0.00058  -0.00064  -0.00022
  27   63431.7    157.6   0.000000041   0.00000  -0.00023  -0.00017   0.00037
  28   64589.2    154.8   0.000051696   0.00026   0.00310   0.01195  -0.01053
  29   64641.2    154.7   0.000021692   0.00011  -0.00326   0.00982   0.00185
  30   64611.2    154.8   0.000007975   0.00004   0.00507   0.00350   0.00164
  31   64676.3    154.6   0.000018165   0.00009   0.00805   0.00271   0.00450
  32   64940.8    154.0   0.000006309   0.00003   0.00544   0.00154  -0.00011
  33   65037.6    153.8   0.000137891   0.00070  -0.02246   0.00069  -0.01390
  34   64281.7    155.6   0.008686889   0.04449   0.19760   0.01230   0.07276
  35   64922.6    154.0   0.012480439   0.06329  -0.00544  -0.06231  -0.24367
  36   64750.6    154.4   0.009569366   0.04865   0.21646  -0.02680  -0.03288
  37   64489.5    155.1   0.003905424   0.01994   0.06224  -0.06156  -0.11079
  38   64215.6    155.7   0.016074804   0.08241   0.02707   0.27250  -0.08615
  39   63883.7    156.5   0.000549153   0.00283   0.00303   0.05178  -0.01181
  40   64059.4    156.1   0.002221781   0.01142  -0.02483   0.03423   0.09813
  41   64085.6    156.0   0.002164450   0.01112  -0.00694   0.10231  -0.02454
  42   64063.6    156.1   0.001616847   0.00831  -0.07712  -0.00868  -0.04781
  43   66841.3    149.6   0.000039802   0.00020   0.00676  -0.00685   0.01017
  44   66823.0    149.6   0.000019142   0.00009  -0.00184   0.00804   0.00513
  45   66881.9    149.5   0.000006203   0.00003   0.00436   0.00243  -0.00236
  46   67467.9    148.2   0.000000016   0.00000  -0.00005   0.00014  -0.00024
  47   67505.4    148.1   0.000000042   0.00000   0.00001  -0.00009  -0.00044
  48   67536.9    148.1   0.000000047   0.00000  -0.00032   0.00028  -0.00022
  49   69244.4    144.4   0.060029891   0.28540   0.25441  -0.26057   0.39088
  50   69242.6    144.4   0.057346412   0.27265   0.04724   0.44779   0.26439

Dispersion correction           -0.012827664
FINAL SINGLE POINT ENERGY     -1401.273177581634

DIPOLE MOMENT
-------------
                                X             Y             Z
Electronic contribution:      0.01187      -0.00360       0.00075
Nuclear contribution   :     -0.00721       0.00596      -0.00269
                        -----------------------------------------
Total Dipole Moment    :      0.00466       0.00236      -0.00194
                        -----------------------------------------
Magnitude (a.u.)       :      0.00557
Magnitude (Debye)      :      0.01417

Rotational constants in cm-1:     0.047520     0.047306     0.047130
Rotational constants in MHz :  1424.609208  1418.183333  1412.921926

                             ****ORCA TERMINATED NORMALLY****
TOTAL RUN TIME: 0 days 0 hours 8 minutes 36 seconds 217 msec
