                         Program Version 4.2.1 -  RELEASE  -
|  1> ! PBE0
|  2> ! opt anfreq
|  3> * xyzfile 0 1 water.xyz **                         ****END OF INPUT****
 Total Charge           Charge          ....    0
 Multiplicity           Mult            ....    1
 Number of Electrons    NEL             ....   10
FINAL SINGLE POINT ENERGY       -76.275485219162
FINAL SINGLE POINT ENERGY       -76.276070196543
FINAL SINGLE POINT ENERGY       -76.276325373874
FINAL SINGLE POINT ENERGY       -76.276325854911
                    ***********************HURRAY********************

CARTESIAN COORDINATES (ANGSTROEM)
---------------------------------
  O      0.000000    0.045838   -0.000000
  H      0.000000   -0.552069   -0.754394
  H      0.000000   -0.552069    0.754394

 Multiplicity           Mult            ....    1
 Number of Electrons    NEL             ....   10
 Basis Dimension        Dim             ....   24

ORBITAL ENERGIES
----------------

  NO   OCC          E(Eh)            E(eV)
   0   2.0000     -19.192411      -522.2521
   1   2.0000      -1.007094       -27.4044
   2   2.0000      -0.526394       -14.3239
   3   2.0000      -0.382654       -10.4126
   4   2.0000      -0.305030        -8.3003
   5   0.0000       0.064246         1.7482
   6   0.0000       0.142007         3.8642
   7   0.0000       0.576372        15.6839
   8   0.0000       0.644321        17.5329
   9   0.0000       0.941470        25.6187

MULLIKEN ATOMIC CHARGES
-----------------------
   0 O :   -0.305607
   1 H :    0.152803
   2 H :    0.152803
Sum of atomic charges:   -0.0000000

LOEWDIN ATOMIC CHARGES
----------------------
   0 O :   -0.148163
   1 H :    0.074081
   2 H :    0.074081

  Mayer bond orders larger than 0.100000
B(  0-O ,  1-H ) :   1.0080 B(  0-O ,  2-H ) :   1.0080

FINAL SINGLE POINT ENERGY       -76.276325874962

DIPOLE MOMENT
-------------
                                X             Y             Z
Electronic contribution:     -0.00000       0.19808      -0.00000
Nuclear contribution   :      0.00000      -0.99535       0.00000
                        -----------------------------------------
Total Dipole Moment    :     -0.00000      -0.79726       0.00000
                        -----------------------------------------
Magnitude (a.u.)       :      0.79726
Magnitude (Debye)      :      2.02648

VIBRATIONAL FREQUENCIES
-----------------------

Scaling factor for frequencies =  1.000000000  (already applied!)

   0:         0.00 cm**-1
   1:         0.00 cm**-1
   2:         0.00 cm**-1
   3:         0.00 cm**-1
   4:         0.00 cm**-1
   5:         0.00 cm**-1
   6:      1643.39 cm**-1
   7:      3867.59 cm**-1
   8:      3967.42 cm**-1

IR SPECTRUM
-----------

 Mode    freq (cm**-1)   T**2         TX         TY         TZ
-------------------------------------------------------------------
   6:      1643.39   59.117934  (  0.000000  -7.688819  -0.000000)
   7:      3867.59    9.166314  (  0.000000   3.027592  -0.000000)
   8:      3967.42   38.814643  ( -0.000000  -0.000000  -6.230140)

--------------------------
THERMOCHEMISTRY AT 298.15K
--------------------------

Temperature         ... 298.15 K
Pressure            ... 1.00 atm
Total Mass          ... 18.02 AMU

Throughout the following assumptions are being made:
  (1) The electronic state is orbitally nondegenerate
  (2) There are no thermally accessible electronically excited states
  (3) Hindered rotations indicated by low frequency modes are not
      treated as such but are treated as vibrations and this may
      cause some error
  (4) All equations used are the standard statistical mechanics
      equations for an ideal gas
  (5) All vibrations are strictly harmonic

freq.    1643.39  E(vib)   ...       0.00
freq.    3867.59  E(vib)   ...       0.00
freq.    3967.42  E(vib)   ...       0.00

------------
INNER ENERGY
------------

The inner energy is: U= E(el) + E(ZPE) + E(vib) + E(rot) + E(trans)
    E(el)   - is the total energy from the electronic structure calculation
              = E(kin-el) + E(nuc-el) + E(el-el) + E(nuc-nuc)
    E(ZPE)  - the the zero temperature vibrational energy from the frequency calculation
    E(vib)  - the the finite temperature correction to E(ZPE) due to population
              of excited vibrational states
    E(rot)  - is the rotational thermal energy
    E(trans)- is the translational thermal energy

Summary of contributions to the inner energy U:
Electronic energy                ...    -76.27632587 Eh
Zero point energy                ...      0.02159337 Eh      13.55 kcal/mol
Thermal vibrational correction   ...      0.00000269 Eh       0.00 kcal/mol
Thermal rotational correction    ...      0.00141627 Eh       0.89 kcal/mol
Thermal translational correction ...      0.00141627 Eh       0.89 kcal/mol
-----------------------------------------------------------------------
Total thermal energy                    -76.25189727 Eh

Summary of corrections to the electronic energy:
(perhaps to be used in another calculation)
Total thermal correction                  0.00283524 Eh       1.78 kcal/mol
Non-thermal (ZPE) correction              0.02159337 Eh      13.55 kcal/mol
-----------------------------------------------------------------------
Total correction                          0.02442860 Eh      15.33 kcal/mol

--------
ENTHALPY
--------

The enthalpy is H = U + kB*T
                kB is Boltzmann's constant
Total free energy                 ...    -76.25189727 Eh
Thermal Enthalpy correction       ...      0.00094421 Eh       0.59 kcal/mol
-----------------------------------------------------------------------
Total Enthalpy                    ...    -76.25095306 Eh

Note: Rotational entropy computed according to Herzberg
Infrared and Raman Spectra, Chapter V,1, Van Nostrand Reinhold, 1945
Point Group:  C2v, Symmetry Number:   2
Rotational constants in cm-1:    26.337851    14.692993     9.431487

Vibrational entropy computed according to the QRRHO of S. Grimme
Chem.Eur.J. 2012 18 9955

-------
ENTROPY
-------

The entropy contributions are T*S = T*(S(el)+S(vib)+S(rot)+S(trans))
     S(el)   - electronic entropy
     S(vib)  - vibrational entropy
     S(rot)  - rotational entropy
     S(trans)- translational entropy
The entropies will be listed as mutliplied by the temperature to get
units of energy

Electronic entropy                ...      0.00000000 Eh      0.00 kcal/mol
Vibrational entropy               ...      0.00000303 Eh      0.00 kcal/mol
Rotational entropy                ...      0.00498406 Eh      3.13 kcal/mol
Translational entropy             ...      0.01644380 Eh     10.32 kcal/mol
-----------------------------------------------------------------------
Final entropy term                ...      0.02143090 Eh     13.45 kcal/mol

In case the symmetry of your molecule has not been determined correctly
or in case you have a reason to use a different symmetry number we print
out the resulting rotational entropy values for sn=1,12 :
 --------------------------------------------------------
|  sn= 1 | S(rot)=       0.00563852 Eh      3.54 kcal/mol|
|  sn= 2 | S(rot)=       0.00498406 Eh      3.13 kcal/mol|
|  sn= 3 | S(rot)=       0.00460123 Eh      2.89 kcal/mol|
|  sn= 4 | S(rot)=       0.00432961 Eh      2.72 kcal/mol|
|  sn= 5 | S(rot)=       0.00411892 Eh      2.58 kcal/mol|
|  sn= 6 | S(rot)=       0.00394678 Eh      2.48 kcal/mol|
|  sn= 7 | S(rot)=       0.00380123 Eh      2.39 kcal/mol|
|  sn= 8 | S(rot)=       0.00367515 Eh      2.31 kcal/mol|
|  sn= 9 | S(rot)=       0.00356394 Eh      2.24 kcal/mol|
|  sn=10 | S(rot)=       0.00346446 Eh      2.17 kcal/mol|
|  sn=11 | S(rot)=       0.00337447 Eh      2.12 kcal/mol|
|  sn=12 | S(rot)=       0.00329232 Eh      2.07 kcal/mol|
 --------------------------------------------------------

-------------------
GIBBS FREE ENERGY
-------------------

The Gibbs free energy is G = H - T*S

Total enthalpy                    ...    -76.25095306 Eh
Total entropy correction          ...     -0.02143090 Eh    -13.45 kcal/mol
-----------------------------------------------------------------------
Final Gibbs free energy         ...    -76.27238396 Eh

For completeness - the Gibbs free energy minus the electronic energy
G-E(el)                           ...      0.00394191 Eh      2.47 kcal/mol

                             ****ORCA TERMINATED NORMALLY****
TOTAL RUN TIME: 0 days 0 hours 0 minutes 24 seconds 332 msec
