                         Program Version 4.2.1 -  RELEASE  -
|  1> ! PBE0
|  2> ! opt anfreq
|  3> * xyzfile 0 1 butane.xyz **                         ****END OF INPUT****
 Total Charge           Charge          ....    0
 Multiplicity           Mult            ....    1
 Number of Electrons    NEL             ....   34
FINAL SINGLE POINT ENERGY      -158.137424532012
FINAL SINGLE POINT ENERGY      -158.139111693707
FINAL SINGLE POINT ENERGY      -158.139403778175
FINAL SINGLE POINT ENERGY      -158.139474908175
FINAL SINGLE POINT ENERGY      -158.139479155395
                    ***********************HURRAY********************

CARTESIAN COORDINATES (ANGSTROEM)
---------------------------------
  C     -2.280520    0.965778   -0.374420
  C     -1.289184   -0.088802    0.091267
  C      0.166211    0.291520   -0.151686
  C      1.157548   -0.763060    0.314002
  H     -3.320780    0.659303   -0.183917
  H     -2.183542    1.156988   -1.455535
  H     -2.118162    1.924755    0.143631
  H     -1.501562   -1.046896   -0.416273
  H     -1.435854   -0.285894    1.168355
  H      0.378589    1.249615    0.355853
  H      0.312881    0.488611   -1.228774
  H      1.060569   -0.954268    1.395117
  H      2.197807   -0.456584    0.123499
  H      0.995189   -1.722037   -0.204048

 Multiplicity           Mult            ....    1
 Number of Electrons    NEL             ....   34
 Basis Dimension        Dim             ....  106

ORBITAL ENERGIES
----------------

  NO   OCC          E(Eh)            E(eV)
   0   2.0000     -10.224571      -278.2247
   1   2.0000     -10.224468      -278.2219
   2   2.0000     -10.220560      -278.1156
   3   2.0000     -10.220552      -278.1154
   4   2.0000      -0.809500       -22.0276
   5   2.0000      -0.736260       -20.0347
   6   2.0000      -0.638703       -17.3800
   7   2.0000      -0.583151       -15.8683
   8   2.0000      -0.478769       -13.0280
   9   2.0000      -0.437427       -11.9030
  10   2.0000      -0.432131       -11.7589
  11   2.0000      -0.419166       -11.4061
  12   2.0000      -0.376998       -10.2586
  13   2.0000      -0.356199        -9.6927
  14   2.0000      -0.345713        -9.4073
  15   2.0000      -0.331610        -9.0236
  16   2.0000      -0.326450        -8.8832
  17   0.0000       0.070543         1.9196
  18   0.0000       0.093176         2.5354
  19   0.0000       0.107159         2.9160
  20   0.0000       0.111599         3.0368
  21   0.0000       0.149540         4.0692

MULLIKEN ATOMIC CHARGES
-----------------------
   0 C :   -0.069336
   1 C :   -0.111652
   2 C :   -0.111652
   3 C :   -0.069336
   4 H :    0.040177
   5 H :    0.038716
   6 H :    0.036225
   7 H :    0.031714
   8 H :    0.034156
   9 H :    0.031714
  10 H :    0.034156
  11 H :    0.038716
  12 H :    0.040177
  13 H :    0.036225
Sum of atomic charges:   -0.0000000

LOEWDIN ATOMIC CHARGES
----------------------
   0 C :   -0.074581
   1 C :   -0.056149
   2 C :   -0.056149
   3 C :   -0.074581
   4 H :    0.028559
   5 H :    0.026867
   6 H :    0.026482
   7 H :    0.024201
   8 H :    0.024622
   9 H :    0.024201
  10 H :    0.024622
  11 H :    0.026867
  12 H :    0.028559
  13 H :    0.026482

  Mayer bond orders larger than 0.100000
B(  0-C ,  1-C ) :   1.0914 B(  0-C ,  4-H ) :   0.9708 B(  0-C ,  5-H ) :   0.9716
B(  0-C ,  6-H ) :   0.9707 B(  1-C ,  2-C ) :   1.0624 B(  1-C ,  7-H ) :   0.9513
B(  1-C ,  8-H ) :   0.9523 B(  2-C ,  3-C ) :   1.0914 B(  2-C ,  9-H ) :   0.9513
B(  2-C , 10-H ) :   0.9523 B(  3-C , 11-H ) :   0.9716 B(  3-C , 12-H ) :   0.9708
B(  3-C , 13-H ) :   0.9707

FINAL SINGLE POINT ENERGY      -158.139479512499

DIPOLE MOMENT
-------------
                                X             Y             Z
Electronic contribution:     -0.00000      -0.00000      -0.00000
Nuclear contribution   :      0.00000       0.00000       0.00000
                        -----------------------------------------
Total Dipole Moment    :     -0.00000      -0.00000      -0.00000
                        -----------------------------------------
Magnitude (a.u.)       :      0.00000
Magnitude (Debye)      :      0.00000

VIBRATIONAL FREQUENCIES
-----------------------

Scaling factor for frequencies =  1.000000000  (already applied!)

   0:         0.00 cm**-1
   1:         0.00 cm**-1
   2:         0.00 cm**-1
   3:         0.00 cm**-1
   4:         0.00 cm**-1
   5:         0.00 cm**-1
   6:       124.96 cm**-1
   7:       231.05 cm**-1
   8:       258.15 cm**-1
   9:       270.55 cm**-1
  10:       429.40 cm**-1
  11:       738.82 cm**-1
  12:       807.07 cm**-1
  13:       856.94 cm**-1
  14:       954.38 cm**-1
  15:       975.53 cm**-1
  16:      1050.69 cm**-1
  17:      1097.63 cm**-1
  18:      1170.17 cm**-1
  19:      1195.54 cm**-1
  20:      1275.93 cm**-1
  21:      1304.68 cm**-1
  22:      1319.75 cm**-1
  23:      1383.88 cm**-1
  24:      1398.35 cm**-1
  25:      1411.35 cm**-1
  26:      1461.24 cm**-1
  27:      1463.50 cm**-1
  28:      1467.83 cm**-1
  29:      1469.50 cm**-1
  30:      1478.45 cm**-1
  31:      1482.80 cm**-1
  32:      3038.57 cm**-1
  33:      3045.30 cm**-1
  34:      3047.81 cm**-1
  35:      3048.93 cm**-1
  36:      3076.25 cm**-1
  37:      3097.22 cm**-1
  38:      3137.87 cm**-1
  39:      3139.48 cm**-1
  40:      3143.77 cm**-1
  41:      3144.36 cm**-1

IR SPECTRUM
-----------

 Mode    freq (cm**-1)   T**2         TX         TY         TZ
-------------------------------------------------------------------
   6:       124.96    0.000303  ( -0.012958   0.000465  -0.011599)
   7:       231.05    0.002294  (  0.015897   0.029716   0.034029)
   8:       258.15    0.071563  ( -0.100661  -0.225227   0.103455)
   9:       270.55    0.000000  (  0.000001   0.000002  -0.000001)
  10:       429.40    0.000000  (  0.000000   0.000000   0.000000)
  11:       738.82    5.045243  (  0.094050   0.986821   2.015585)
  12:       807.07    0.000000  (  0.000001  -0.000001   0.000001)
  13:       856.94    0.000000  (  0.000000   0.000000  -0.000000)
  14:       954.38    1.791054  (  0.042980   0.585443   1.202690)
  15:       975.53    7.370653  ( -2.458539  -1.001090   0.569259)
  16:      1050.69    0.079047  (  0.026991  -0.248723   0.128279)
  17:      1097.63    0.000000  (  0.000000   0.000000  -0.000000)
  18:      1170.17    0.000000  ( -0.000000  -0.000000   0.000000)
  19:      1195.54    0.000000  (  0.000000   0.000001  -0.000000)
  20:      1275.93    0.011719  ( -0.008360   0.047269   0.097028)
  21:      1304.68    3.036088  ( -1.698799   0.371726  -0.109503)
  22:      1319.75    0.000000  (  0.000002   0.000001  -0.000001)
  23:      1383.88    0.000000  (  0.000001  -0.000001   0.000000)
  24:      1398.35    5.387489  ( -1.401616   1.682453  -0.769620)
  25:      1411.35    0.000000  (  0.000000  -0.000001  -0.000001)
  26:      1461.24    0.000000  ( -0.000003  -0.000002  -0.000003)
  27:      1463.50    2.381731  ( -1.510208  -0.273089   0.162557)
  28:      1467.83    0.000000  ( -0.000000  -0.000004  -0.000000)
  29:      1469.50   15.850585  ( -0.177993  -1.719755  -3.586272)
  30:      1478.45    0.000000  ( -0.000001  -0.000002  -0.000000)
  31:      1482.80    8.866442  ( -1.834273  -2.067075   1.108641)
  32:      3038.57    0.000000  (  0.000002   0.000011  -0.000004)
  33:      3045.30   36.720546  ( -2.979660  -4.750038   2.297675)
  34:      3047.81   73.723301  ( -3.810260   6.991038  -3.214126)
  35:      3048.93    0.000000  (  0.000009  -0.000012   0.000008)
  36:      3076.25    0.000000  (  0.000001  -0.000002   0.000004)
  37:      3097.22   26.953401  (  0.208067   2.176797   4.708680)
  38:      3137.87    0.000000  (  0.000004   0.000014   0.000010)
  39:      3139.48   69.868468  ( -0.014452  -3.465859  -7.606318)
  40:      3143.77    0.000000  ( -0.000205  -0.000154   0.000044)
  41:      3144.36   49.434990  ( -5.593215  -3.920260   1.668083)

--------------------------
THERMOCHEMISTRY AT 298.15K
--------------------------

Temperature         ... 298.15 K
Pressure            ... 1.00 atm
Total Mass          ... 58.12 AMU

Throughout the following assumptions are being made:
  (1) The electronic state is orbitally nondegenerate
  (2) There are no thermally accessible electronically excited states
  (3) Hindered rotations indicated by low frequency modes are not
      treated as such but are treated as vibrations and this may
      cause some error
  (4) All equations used are the standard statistical mechanics
      equations for an ideal gas
  (5) All vibrations are strictly harmonic

freq.     124.96  E(vib)   ...       0.43
freq.     231.05  E(vib)   ...       0.32
freq.     258.15  E(vib)   ...       0.30
freq.     270.55  E(vib)   ...       0.29
freq.     429.40  E(vib)   ...       0.18
freq.     738.82  E(vib)   ...       0.06
freq.     807.07  E(vib)   ...       0.05
freq.     856.94  E(vib)   ...       0.04
freq.     954.38  E(vib)   ...       0.03
freq.     975.53  E(vib)   ...       0.03
freq.    1050.69  E(vib)   ...       0.02
freq.    1097.63  E(vib)   ...       0.02
freq.    1170.17  E(vib)   ...       0.01
freq.    1195.54  E(vib)   ...       0.01
freq.    1275.93  E(vib)   ...       0.01
freq.    1304.68  E(vib)   ...       0.01
freq.    1319.75  E(vib)   ...       0.01
freq.    1383.88  E(vib)   ...       0.00
freq.    1398.35  E(vib)   ...       0.00
freq.    1411.35  E(vib)   ...       0.00
freq.    1461.24  E(vib)   ...       0.00
freq.    1463.50  E(vib)   ...       0.00
freq.    1467.83  E(vib)   ...       0.00
freq.    1469.50  E(vib)   ...       0.00
freq.    1478.45  E(vib)   ...       0.00
freq.    1482.80  E(vib)   ...       0.00
freq.    3038.57  E(vib)   ...       0.00
freq.    3045.30  E(vib)   ...       0.00
freq.    3047.81  E(vib)   ...       0.00
freq.    3048.93  E(vib)   ...       0.00
freq.    3076.25  E(vib)   ...       0.00
freq.    3097.22  E(vib)   ...       0.00
freq.    3137.87  E(vib)   ...       0.00
freq.    3139.48  E(vib)   ...       0.00
freq.    3143.77  E(vib)   ...       0.00
freq.    3144.36  E(vib)   ...       0.00

------------
INNER ENERGY
------------

The inner energy is: U= E(el) + E(ZPE) + E(vib) + E(rot) + E(trans)
    E(el)   - is the total energy from the electronic structure calculation
              = E(kin-el) + E(nuc-el) + E(el-el) + E(nuc-nuc)
    E(ZPE)  - the the zero temperature vibrational energy from the frequency calculation
    E(vib)  - the the finite temperature correction to E(ZPE) due to population
              of excited vibrational states
    E(rot)  - is the rotational thermal energy
    E(trans)- is the translational thermal energy

Summary of contributions to the inner energy U:
Electronic energy                ...   -158.13947951 Eh
Zero point energy                ...      0.13212846 Eh      82.91 kcal/mol
Thermal vibrational correction   ...      0.00292021 Eh       1.83 kcal/mol
Thermal rotational correction    ...      0.00141627 Eh       0.89 kcal/mol
Thermal translational correction ...      0.00141627 Eh       0.89 kcal/mol
-----------------------------------------------------------------------
Total thermal energy                   -158.00159830 Eh

Summary of corrections to the electronic energy:
(perhaps to be used in another calculation)
Total thermal correction                  0.00575275 Eh       3.61 kcal/mol
Non-thermal (ZPE) correction              0.13212846 Eh      82.91 kcal/mol
-----------------------------------------------------------------------
Total correction                          0.13788121 Eh      86.52 kcal/mol

--------
ENTHALPY
--------

The enthalpy is H = U + kB*T
                kB is Boltzmann's constant
Total free energy                 ...   -158.00159830 Eh
Thermal Enthalpy correction       ...      0.00094421 Eh       0.59 kcal/mol
-----------------------------------------------------------------------
Total Enthalpy                    ...   -158.00065409 Eh

Error (ORCA_SYM): TSymmetryOperation::SetReflection called with NULL axis!
If your molecule is not C1 symmetric, check warnings below carefully ...
Error (ORCA_SYM): TSymmetryOperation::SetReflection called with NULL axis!
If your molecule is not C1 symmetric, check warnings below carefully ...
Error (ORCA_SYM): TSymmetryOperation::SetReflection called with NULL axis!
If your molecule is not C1 symmetric, check warnings below carefully ...
Error (ORCA_SYM): TSymmetryOperation::SetReflection called with NULL axis!
If your molecule is not C1 symmetric, check warnings below carefully ...
Error (ORCA_SYM): TSymmetryOperation::SetReflection called with NULL axis!
If your molecule is not C1 symmetric, check warnings below carefully ...

Note: Only C1 symmetry has been detected, increase convergence thresholds
      if your molecule has a higher symmetry. Symmetry factor of 1.0 is
      used for the rotational entropy correction.

Note: Rotational entropy computed according to Herzberg
Infrared and Raman Spectra, Chapter V,1, Van Nostrand Reinhold, 1945
Point Group:  C1, Symmetry Number:   1
Rotational constants in cm-1:     0.783757     0.121006     0.113726

Vibrational entropy computed according to the QRRHO of S. Grimme
Chem.Eur.J. 2012 18 9955

-------
ENTROPY
-------

The entropy contributions are T*S = T*(S(el)+S(vib)+S(rot)+S(trans))
     S(el)   - electronic entropy
     S(vib)  - vibrational entropy
     S(rot)  - rotational entropy
     S(trans)- translational entropy
The entropies will be listed as mutliplied by the temperature to get
units of energy

Electronic entropy                ...      0.00000000 Eh      0.00 kcal/mol
Vibrational entropy               ...      0.00485418 Eh      3.05 kcal/mol
Rotational entropy                ...      0.01164916 Eh      7.31 kcal/mol
Translational entropy             ...      0.01810279 Eh     11.36 kcal/mol
-----------------------------------------------------------------------
Final entropy term                ...      0.03460613 Eh     21.72 kcal/mol

In case the symmetry of your molecule has not been determined correctly
or in case you have a reason to use a different symmetry number we print
out the resulting rotational entropy values for sn=1,12 :
 --------------------------------------------------------
|  sn= 1 | S(rot)=       0.01164916 Eh      7.31 kcal/mol|
|  sn= 2 | S(rot)=       0.01099471 Eh      6.90 kcal/mol|
|  sn= 3 | S(rot)=       0.01061187 Eh      6.66 kcal/mol|
|  sn= 4 | S(rot)=       0.01034025 Eh      6.49 kcal/mol|
|  sn= 5 | S(rot)=       0.01012956 Eh      6.36 kcal/mol|
|  sn= 6 | S(rot)=       0.00995742 Eh      6.25 kcal/mol|
|  sn= 7 | S(rot)=       0.00981187 Eh      6.16 kcal/mol|
|  sn= 8 | S(rot)=       0.00968579 Eh      6.08 kcal/mol|
|  sn= 9 | S(rot)=       0.00957459 Eh      6.01 kcal/mol|
|  sn=10 | S(rot)=       0.00947511 Eh      5.95 kcal/mol|
|  sn=11 | S(rot)=       0.00938512 Eh      5.89 kcal/mol|
|  sn=12 | S(rot)=       0.00930296 Eh      5.84 kcal/mol|
 --------------------------------------------------------

-------------------
GIBBS FREE ENERGY

                             ****ORCA TERMINATED NORMALLY****
TOTAL RUN TIME: 0 days 0 hours 11 minutes 24 seconds 524 msec
