                         Program Version 4.2.1 -  RELEASE  -
|  1> ! PBE0
|  2> ! opt anfreq
|  3> * xyzfile 0 2 methyl.xyz **                         ****END OF INPUT****
 Total Charge           Charge          ....    0
 Multiplicity           Mult            ....    2
 Number of Electrons    NEL             ....    9
FINAL SINGLE POINT ENERGY       -39.739644604920
FINAL SINGLE POINT ENERGY       -39.747399631861
FINAL SINGLE POINT ENERGY       -39.751434071379
FINAL SINGLE POINT ENERGY       -39.752751355979
FINAL SINGLE POINT ENERGY       -39.753172513660
FINAL SINGLE POINT ENERGY       -39.753268318518
FINAL SINGLE POINT ENERGY       -39.753275169084
                    ***********************HURRAY********************

CARTESIAN COORDINATES (ANGSTROEM)
---------------------------------
  C      1.352140   -0.973416    0.407343
  H      0.973930   -0.878528    1.425410
  H      2.181339   -0.349596    0.072494
  H      0.903711   -1.694410   -0.276677

 Multiplicity           Mult            ....    2
 Number of Electrons    NEL             ....    9
 Basis Dimension        Dim             ....   29

ORBITAL ENERGIES
----------------
                 SPIN UP ORBITALS
  NO   OCC          E(Eh)            E(eV)
   0   1.0000     -10.246297      -278.8159
   1   1.0000      -0.694877       -18.9086
   2   1.0000      -0.428032       -11.6474
   3   1.0000      -0.427801       -11.6411
   4   1.0000      -0.246577        -6.7097
   5   0.0000       0.089780         2.4430
   6   0.0000       0.155170         4.2224
   7   0.0000       0.155411         4.2289
   8   0.0000       0.456629        12.4255
   9   0.0000       0.458541        12.4775

                 SPIN DOWN ORBITALS
  NO   OCC          E(Eh)            E(eV)
   0   1.0000     -10.229999      -278.3724
   1   1.0000      -0.648863       -17.6565
   2   1.0000      -0.416889       -11.3441
   3   1.0000      -0.416593       -11.3361
   4   0.0000      -0.041870        -1.1393
   5   0.0000       0.103071         2.8047
   6   0.0000       0.160324         4.3626
   7   0.0000       0.160523         4.3680
   8   0.0000       0.462819        12.5940

MULLIKEN ATOMIC CHARGES AND SPIN POPULATIONS
--------------------------------------------
   0 C :   -0.240020    1.162736
   1 H :    0.080532   -0.054353
   2 H :    0.079594   -0.054210
   3 H :    0.079893   -0.054174
Sum of atomic charges         :   -0.0000000

LOEWDIN ATOMIC CHARGES AND SPIN POPULATIONS
-------------------------------------------
   0 C :   -0.066844    1.013740
   1 H :    0.022392   -0.004592
   2 H :    0.022183   -0.004595
   3 H :    0.022269   -0.004553

  Mayer bond orders larger than 0.100000
B(  0-C ,  1-H ) :   0.9865 B(  0-C ,  2-H ) :   0.9869 B(  0-C ,  3-H ) :   0.9870

FINAL SINGLE POINT ENERGY       -39.753275429148

DIPOLE MOMENT
-------------
                                X             Y             Z
Electronic contribution:     -0.00130       0.00048       0.00066
Nuclear contribution   :      0.00192      -0.00171      -0.00060
                        -----------------------------------------
Total Dipole Moment    :      0.00062      -0.00124       0.00006
                        -----------------------------------------
Magnitude (a.u.)       :      0.00139
Magnitude (Debye)      :      0.00352

VIBRATIONAL FREQUENCIES
-----------------------

Scaling factor for frequencies =  1.000000000  (already applied!)

   0:         0.00 cm**-1
   1:         0.00 cm**-1
   2:         0.00 cm**-1
   3:         0.00 cm**-1
   4:         0.00 cm**-1
   5:         0.00 cm**-1
   6:       469.68 cm**-1
   7:      1372.36 cm**-1
   8:      1373.18 cm**-1
   9:      3123.30 cm**-1
  10:      3329.98 cm**-1
  11:      3331.86 cm**-1

IR SPECTRUM
-----------

 Mode    freq (cm**-1)   T**2         TX         TY         TZ
-------------------------------------------------------------------
   6:       469.68   85.176780  (  5.952197  -6.443060   2.869688)
   7:      1372.36    4.796456  (  1.511292   1.550512   0.329187)
   8:      1373.18    4.663887  (  0.694645  -0.249121  -2.029604)
   9:      3123.30    0.000048  ( -0.000716   0.002876  -0.006228)
  10:      3329.98    0.990132  (  0.670895   0.712469   0.180054)
  11:      3331.86    0.898012  (  0.327570  -0.077986  -0.885792)

--------------------------
THERMOCHEMISTRY AT 298.15K
--------------------------

Temperature         ... 298.15 K
Pressure            ... 1.00 atm
Total Mass          ... 15.03 AMU

Throughout the following assumptions are being made:
  (1) The electronic state is orbitally nondegenerate
      but the spin degeneracy is treated
  (2) There are no thermally accessible electronically excited states
  (3) Hindered rotations indicated by low frequency modes are not
      treated as such but are treated as vibrations and this may
      cause some error
  (4) All equations used are the standard statistical mechanics
      equations for an ideal gas
  (5) All vibrations are strictly harmonic

freq.     469.68  E(vib)   ...       0.16
freq.    1372.36  E(vib)   ...       0.01
freq.    1373.18  E(vib)   ...       0.01
freq.    3123.30  E(vib)   ...       0.00
freq.    3329.98  E(vib)   ...       0.00
freq.    3331.86  E(vib)   ...       0.00

------------
INNER ENERGY
------------

The inner energy is: U= E(el) + E(ZPE) + E(vib) + E(rot) + E(trans)
    E(el)   - is the total energy from the electronic structure calculation
              = E(kin-el) + E(nuc-el) + E(el-el) + E(nuc-nuc)
    E(ZPE)  - the the zero temperature vibrational energy from the frequency calculation
    E(vib)  - the the finite temperature correction to E(ZPE) due to population
              of excited vibrational states
    E(rot)  - is the rotational thermal energy
    E(trans)- is the translational thermal energy

Summary of contributions to the inner energy U:
Electronic energy                ...    -39.75327543 Eh
Zero point energy                ...      0.02961699 Eh      18.58 kcal/mol
Thermal vibrational correction   ...      0.00026417 Eh       0.17 kcal/mol
Thermal rotational correction    ...      0.00141627 Eh       0.89 kcal/mol
Thermal translational correction ...      0.00141627 Eh       0.89 kcal/mol
-----------------------------------------------------------------------
Total thermal energy                    -39.72056172 Eh

Summary of corrections to the electronic energy:
(perhaps to be used in another calculation)
Total thermal correction                  0.00309671 Eh       1.94 kcal/mol
Non-thermal (ZPE) correction              0.02961699 Eh      18.58 kcal/mol
-----------------------------------------------------------------------
Total correction                          0.03271371 Eh      20.53 kcal/mol

--------
ENTHALPY
--------

The enthalpy is H = U + kB*T
                kB is Boltzmann's constant
Total free energy                 ...    -39.72056172 Eh
Thermal Enthalpy correction       ...      0.00094421 Eh       0.59 kcal/mol
-----------------------------------------------------------------------
Total Enthalpy                    ...    -39.71961751 Eh

Note: Only C1 symmetry has been detected, increase convergence thresholds
      if your molecule has a higher symmetry. Symmetry factor of 1.0 is
      used for the rotational entropy correction.

Note: Rotational entropy computed according to Herzberg
Infrared and Raman Spectra, Chapter V,1, Van Nostrand Reinhold, 1945
Point Group:  C1, Symmetry Number:   1
Rotational constants in cm-1:     9.388090     9.370310     4.689602

Vibrational entropy computed according to the QRRHO of S. Grimme
Chem.Eur.J. 2012 18 9955

-------
ENTROPY
-------

The entropy contributions are T*S = T*(S(el)+S(vib)+S(rot)+S(trans))
     S(el)   - electronic entropy
     S(vib)  - vibrational entropy
     S(rot)  - rotational entropy
     S(trans)- translational entropy
The entropies will be listed as mutliplied by the temperature to get
units of energy

Electronic entropy                ...      0.00065446 Eh      0.41 kcal/mol
Vibrational entropy               ...      0.00037058 Eh      0.23 kcal/mol
Rotational entropy                ...      0.00666772 Eh      4.18 kcal/mol
Translational entropy             ...      0.01618771 Eh     10.16 kcal/mol
-----------------------------------------------------------------------
Final entropy term                ...      0.02388047 Eh     14.99 kcal/mol

In case the symmetry of your molecule has not been determined correctly
or in case you have a reason to use a different symmetry number we print
out the resulting rotational entropy values for sn=1,12 :
 --------------------------------------------------------
|  sn= 1 | S(rot)=       0.00666772 Eh      4.18 kcal/mol|
|  sn= 2 | S(rot)=       0.00601327 Eh      3.77 kcal/mol|
|  sn= 3 | S(rot)=       0.00563043 Eh      3.53 kcal/mol|
|  sn= 4 | S(rot)=       0.00535881 Eh      3.36 kcal/mol|
|  sn= 5 | S(rot)=       0.00514812 Eh      3.23 kcal/mol|
|  sn= 6 | S(rot)=       0.00497598 Eh      3.12 kcal/mol|
|  sn= 7 | S(rot)=       0.00483043 Eh      3.03 kcal/mol|
|  sn= 8 | S(rot)=       0.00470435 Eh      2.95 kcal/mol|
|  sn= 9 | S(rot)=       0.00459315 Eh      2.88 kcal/mol|
|  sn=10 | S(rot)=       0.00449367 Eh      2.82 kcal/mol|
|  sn=11 | S(rot)=       0.00440368 Eh      2.76 kcal/mol|
|  sn=12 | S(rot)=       0.00432152 Eh      2.71 kcal/mol|
 --------------------------------------------------------

-------------------
GIBBS FREE ENERGY
-------------------

The Gibbs free energy is G = H - T*S

Total enthalpy                    ...    -39.71961751 Eh
Total entropy correction          ...     -0.02388047 Eh    -14.99 kcal/mol
-----------------------------------------------------------------------
Final Gibbs free energy         ...    -39.74349798 Eh

For completeness - the Gibbs free energy minus the electronic energy
G-E(el)                           ...      0.00977745 Eh      6.14 kcal/mol

                             ****ORCA TERMINATED NORMALLY****
TOTAL RUN TIME: 0 days 0 hours 0 minutes 50 seconds 596 msec
