                         Program Version 4.2.1 -  RELEASE  -
|  1> ! PBE0
|  2> ! opt anfreq
|  3> * xyzfile 0 2 propyl.xyz **                         ****END OF INPUT****
 Total Charge           Charge          ....    0
 Multiplicity           Mult            ....    2
 Number of Electrons    NEL             ....   25
FINAL SINGLE POINT ENERGY      -118.218907173068
FINAL SINGLE POINT ENERGY      -118.226814452571
FINAL SINGLE POINT ENERGY      -118.230694062556
FINAL SINGLE POINT ENERGY      -118.232204782582
FINAL SINGLE POINT ENERGY      -118.232739175233
FINAL SINGLE POINT ENERGY      -118.232857722383
FINAL SINGLE POINT ENERGY      -118.232871643440
FINAL SINGLE POINT ENERGY      -118.232873296282
                    ***********************HURRAY********************

CARTESIAN COORDINATES (ANGSTROEM)
---------------------------------
  C     -2.379643    0.975406   -0.375516
  C     -1.291191   -0.016301    0.056966
  C      0.091644    0.452094   -0.225474
  H     -3.383523    0.584518   -0.144662
  H     -2.333263    1.170686   -1.458082
  H     -2.267479    1.941199    0.140753
  H     -1.470409   -0.978632   -0.453020
  H     -1.405174   -0.214296    1.136889
  H      0.620683    1.100485    0.478982
  H      0.546445    0.299821   -1.208347

 Multiplicity           Mult            ....    2
 Number of Electrons    NEL             ....   25
 Basis Dimension        Dim             ....   77

ORBITAL ENERGIES
----------------
                 SPIN UP ORBITALS
  NO   OCC          E(Eh)            E(eV)
   0   1.0000     -10.237378      -278.5732
   1   1.0000     -10.232825      -278.4493
   2   1.0000     -10.226518      -278.2777
   3   1.0000      -0.799699       -21.7609
   4   1.0000      -0.687414       -18.7055
   5   1.0000      -0.589698       -16.0465
   6   1.0000      -0.476642       -12.9701
   7   1.0000      -0.443694       -12.0735
   8   1.0000      -0.403925       -10.9914
   9   1.0000      -0.398259       -10.8372
  10   1.0000      -0.360395        -9.8068
  11   1.0000      -0.340081        -9.2541
  12   1.0000      -0.218627        -5.9491
  13   0.0000       0.076767         2.0889
  14   0.0000       0.114330         3.1111
  15   0.0000       0.115300         3.1375
  16   0.0000       0.125075         3.4035
  17   0.0000       0.155327         4.2267

                 SPIN DOWN ORBITALS
  NO   OCC          E(Eh)            E(eV)
   0   1.0000     -10.233952      -278.4800
   1   1.0000     -10.224783      -278.2305
   2   1.0000     -10.221394      -278.1383
   3   1.0000      -0.788265       -21.4498
   4   1.0000      -0.666561       -18.1381
   5   1.0000      -0.574061       -15.6210
   6   1.0000      -0.471791       -12.8381
   7   1.0000      -0.436937       -11.8897
   8   1.0000      -0.398189       -10.8353
   9   1.0000      -0.385290       -10.4843
  10   1.0000      -0.355076        -9.6621
  11   1.0000      -0.337766        -9.1911
  12   0.0000      -0.033010        -0.8982
  13   0.0000       0.081304         2.2124
  14   0.0000       0.116562         3.1718
  15   0.0000       0.125565         3.4168
  16   0.0000       0.127086         3.4582

MULLIKEN ATOMIC CHARGES AND SPIN POPULATIONS
--------------------------------------------
   0 C :   -0.090962    0.040634
   1 C :   -0.098292   -0.099332
   2 C :   -0.152166    1.123432
   3 H :    0.040795    0.013110
   4 H :    0.044345    0.000923
   5 H :    0.041786    0.000928
   6 H :    0.045562    0.015382
   7 H :    0.047697    0.014766
   8 H :    0.061538   -0.054892
   9 H :    0.059697   -0.054952
Sum of atomic charges         :   -0.0000000

LOEWDIN ATOMIC CHARGES AND SPIN POPULATIONS
-------------------------------------------
   0 C :   -0.070495    0.051458
   1 C :   -0.075311   -0.014348
   2 C :   -0.036964    0.935884
   3 H :    0.027361    0.007574
   4 H :    0.027309    0.000897
   5 H :    0.026962    0.000907
   6 H :    0.033011    0.011997
   7 H :    0.033311    0.011502
   8 H :    0.017635   -0.002926
   9 H :    0.017181   -0.002945

  Mayer bond orders larger than 0.100000
B(  0-C ,  1-C ) :   1.0671 B(  0-C ,  3-H ) :   0.9689 B(  0-C ,  4-H ) :   0.9748
B(  0-C ,  5-H ) :   0.9740 B(  1-C ,  2-C ) :   1.0826 B(  1-C ,  6-H ) :   0.9501
B(  1-C ,  7-H ) :   0.9507 B(  2-C ,  8-H ) :   0.9713 B(  2-C ,  9-H ) :   0.9719

FINAL SINGLE POINT ENERGY      -118.232873822120

DIPOLE MOMENT
-------------
                                X             Y             Z
Electronic contribution:      0.95070      -0.46570       0.18516
Nuclear contribution   :     -1.05229       0.47934      -0.18680
                        -----------------------------------------
Total Dipole Moment    :     -0.10159       0.01365      -0.00164
                        -----------------------------------------
Magnitude (a.u.)       :      0.10252
Magnitude (Debye)      :      0.26059

VIBRATIONAL FREQUENCIES
-----------------------

Scaling factor for frequencies =  1.000000000  (already applied!)

   0:         0.00 cm**-1
   1:         0.00 cm**-1
   2:         0.00 cm**-1
   3:         0.00 cm**-1
   4:         0.00 cm**-1
   5:         0.00 cm**-1
   6:        46.71 cm**-1
   7:       259.75 cm**-1
   8:       333.90 cm**-1
   9:       528.35 cm**-1
  10:       744.24 cm**-1
  11:       886.30 cm**-1
  12:       915.28 cm**-1
  13:      1049.79 cm**-1
  14:      1112.00 cm**-1
  15:      1179.84 cm**-1
  16:      1295.72 cm**-1
  17:      1319.61 cm**-1
  18:      1381.57 cm**-1
  19:      1442.56 cm**-1
  20:      1460.05 cm**-1
  21:      1465.63 cm**-1
  22:      1481.63 cm**-1
  23:      3047.31 cm**-1
  24:      3051.55 cm**-1
  25:      3099.37 cm**-1
  26:      3146.00 cm**-1
  27:      3153.66 cm**-1
  28:      3158.54 cm**-1
  29:      3273.15 cm**-1

IR SPECTRUM
-----------

 Mode    freq (cm**-1)   T**2         TX         TY         TZ
-------------------------------------------------------------------
   6:        46.71    0.258714  ( -0.019725  -0.189328  -0.471678)
   7:       259.75    0.003238  (  0.000093   0.044215   0.035826)
   8:       333.90    8.178156  ( -1.439311   2.258580  -1.002675)
   9:       528.35   45.457511  ( -3.938597   5.008687  -2.204091)
  10:       744.24    3.895477  ( -0.074494  -0.865333  -1.772322)
  11:       886.30    0.675784  (  0.023937   0.375036   0.731135)
  12:       915.28    1.561507  ( -1.007883  -0.651554   0.348075)
  13:      1049.79    2.294678  ( -0.827609  -1.139444   0.558040)
  14:      1112.00    0.104211  ( -0.268525  -0.163252   0.073850)
  15:      1179.84    0.098170  ( -0.024033  -0.138705  -0.279916)
  16:      1295.72    0.494756  (  0.052497   0.304867   0.631709)
  17:      1319.61    1.277580  (  1.095956   0.223379  -0.162980)
  18:      1381.57    0.504161  (  0.356470  -0.552599   0.267815)
  19:      1442.56    1.787822  ( -0.057193  -1.204264   0.578186)
  20:      1460.05    1.175995  ( -1.083645   0.014394  -0.038762)
  21:      1465.63    6.806494  (  0.095877   1.138831   2.345286)
  22:      1481.63    4.020240  (  0.864536   1.610593  -0.823898)
  23:      3047.31   28.790881  ( -0.438095  -4.809868   2.337546)
  24:      3051.55   23.194536  (  4.394916  -1.831273   0.725042)
  25:      3099.37   11.306148  (  0.150028   1.461806   3.024361)
  26:      3146.00   22.882624  (  3.190828   3.110287  -1.739930)
  27:      3153.66   25.118730  (  0.225869   2.250263   4.472586)
  28:      3158.54   11.319886  ( -3.085767  -1.178948   0.638757)
  29:      3273.15    7.980653  (  0.079242   1.203854   2.554429)

--------------------------
THERMOCHEMISTRY AT 298.15K
--------------------------

Temperature         ... 298.15 K
Pressure            ... 1.00 atm
Total Mass          ... 43.09 AMU

Throughout the following assumptions are being made:
  (1) The electronic state is orbitally nondegenerate
      but the spin degeneracy is treated
  (2) There are no thermally accessible electronically excited states
  (3) Hindered rotations indicated by low frequency modes are not
      treated as such but are treated as vibrations and this may
      cause some error
  (4) All equations used are the standard statistical mechanics
      equations for an ideal gas
  (5) All vibrations are strictly harmonic

freq.      46.71  E(vib)   ...       0.53
freq.     259.75  E(vib)   ...       0.30
freq.     333.90  E(vib)   ...       0.24
freq.     528.35  E(vib)   ...       0.13
freq.     744.24  E(vib)   ...       0.06
freq.     886.30  E(vib)   ...       0.04
freq.     915.28  E(vib)   ...       0.03
freq.    1049.79  E(vib)   ...       0.02
freq.    1112.00  E(vib)   ...       0.01
freq.    1179.84  E(vib)   ...       0.01
freq.    1295.72  E(vib)   ...       0.01
freq.    1319.61  E(vib)   ...       0.01
freq.    1381.57  E(vib)   ...       0.01
freq.    1442.56  E(vib)   ...       0.00
freq.    1460.05  E(vib)   ...       0.00
freq.    1465.63  E(vib)   ...       0.00
freq.    1481.63  E(vib)   ...       0.00
freq.    3047.31  E(vib)   ...       0.00
freq.    3051.55  E(vib)   ...       0.00
freq.    3099.37  E(vib)   ...       0.00
freq.    3146.00  E(vib)   ...       0.00
freq.    3153.66  E(vib)   ...       0.00
freq.    3158.54  E(vib)   ...       0.00
freq.    3273.15  E(vib)   ...       0.00

------------
INNER ENERGY
------------

The inner energy is: U= E(el) + E(ZPE) + E(vib) + E(rot) + E(trans)
    E(el)   - is the total energy from the electronic structure calculation
              = E(kin-el) + E(nuc-el) + E(el-el) + E(nuc-nuc)
    E(ZPE)  - the the zero temperature vibrational energy from the frequency calculation
    E(vib)  - the the finite temperature correction to E(ZPE) due to population
              of excited vibrational states
    E(rot)  - is the rotational thermal energy
    E(trans)- is the translational thermal energy

Summary of contributions to the inner energy U:
Electronic energy                ...   -118.23287382 Eh
Zero point energy                ...      0.08846693 Eh      55.51 kcal/mol
Thermal vibrational correction   ...      0.00222724 Eh       1.40 kcal/mol
Thermal rotational correction    ...      0.00141627 Eh       0.89 kcal/mol
Thermal translational correction ...      0.00141627 Eh       0.89 kcal/mol
-----------------------------------------------------------------------
Total thermal energy                   -118.13934711 Eh

Summary of corrections to the electronic energy:
(perhaps to be used in another calculation)
Total thermal correction                  0.00505978 Eh       3.18 kcal/mol
Non-thermal (ZPE) correction              0.08846693 Eh      55.51 kcal/mol
-----------------------------------------------------------------------
Total correction                          0.09352672 Eh      58.69 kcal/mol

--------
ENTHALPY
--------

The enthalpy is H = U + kB*T
                kB is Boltzmann's constant
Total free energy                 ...   -118.13934711 Eh
Thermal Enthalpy correction       ...      0.00094421 Eh       0.59 kcal/mol
-----------------------------------------------------------------------
Total Enthalpy                    ...   -118.13840290 Eh

Note: Only C1 symmetry has been detected, increase convergence thresholds
      if your molecule has a higher symmetry. Symmetry factor of 1.0 is
      used for the rotational entropy correction.

Note: Rotational entropy computed according to Herzberg
Infrared and Raman Spectra, Chapter V,1, Van Nostrand Reinhold, 1945
Point Group:  C1, Symmetry Number:   1
Rotational constants in cm-1:     1.048749     0.294201     0.265343

Vibrational entropy computed according to the QRRHO of S. Grimme
Chem.Eur.J. 2012 18 9955

-------
ENTROPY
-------

The entropy contributions are T*S = T*(S(el)+S(vib)+S(rot)+S(trans))
     S(el)   - electronic entropy
     S(vib)  - vibrational entropy
     S(rot)  - rotational entropy
     S(trans)- translational entropy
The entropies will be listed as mutliplied by the temperature to get
units of energy

Electronic entropy                ...      0.00065446 Eh      0.41 kcal/mol
Vibrational entropy               ...      0.00381198 Eh      2.39 kcal/mol
Rotational entropy                ...      0.01069228 Eh      6.71 kcal/mol
Translational entropy             ...      0.01767888 Eh     11.09 kcal/mol
-----------------------------------------------------------------------
Final entropy term                ...      0.03283759 Eh     20.61 kcal/mol

In case the symmetry of your molecule has not been determined correctly
or in case you have a reason to use a different symmetry number we print
out the resulting rotational entropy values for sn=1,12 :
 --------------------------------------------------------
|  sn= 1 | S(rot)=       0.01069228 Eh      6.71 kcal/mol|
|  sn= 2 | S(rot)=       0.01003782 Eh      6.30 kcal/mol|
|  sn= 3 | S(rot)=       0.00965499 Eh      6.06 kcal/mol|
|  sn= 4 | S(rot)=       0.00938336 Eh      5.89 kcal/mol|
|  sn= 5 | S(rot)=       0.00917267 Eh      5.76 kcal/mol|
|  sn= 6 | S(rot)=       0.00900053 Eh      5.65 kcal/mol|
|  sn= 7 | S(rot)=       0.00885498 Eh      5.56 kcal/mol|
|  sn= 8 | S(rot)=       0.00872891 Eh      5.48 kcal/mol|
|  sn= 9 | S(rot)=       0.00861770 Eh      5.41 kcal/mol|
|  sn=10 | S(rot)=       0.00851822 Eh      5.35 kcal/mol|
|  sn=11 | S(rot)=       0.00842823 Eh      5.29 kcal/mol|
|  sn=12 | S(rot)=       0.00834607 Eh      5.24 kcal/mol|
 --------------------------------------------------------

-------------------
GIBBS FREE ENERGY
-------------------

The Gibbs free energy is G = H - T*S

Total enthalpy                    ...   -118.13840290 Eh
Total entropy correction          ...     -0.03283759 Eh    -20.61 kcal/mol
-----------------------------------------------------------------------
Final Gibbs free energy         ...   -118.17124049 Eh

For completeness - the Gibbs free energy minus the electronic energy
G-E(el)                           ...      0.06163333 Eh     38.68 kcal/mol

                             ****ORCA TERMINATED NORMALLY****
TOTAL RUN TIME: 0 days 0 hours 7 minutes 44 seconds 390 msec
