                         Program Version 4.2.1 -  RELEASE  -
|  1> ! PBE0
|  2> * xyz 0 1
|  3> Kr	0	0	0
|  4> **                         ****END OF INPUT****

CARTESIAN COORDINATES (ANGSTROEM)
---------------------------------
  Kr     0.000000    0.000000    0.000000

 Total Charge           Charge          ....    0
 Multiplicity           Mult            ....    1
 Number of Electrons    NEL             ....   36
 Basis Dimension        Dim             ....   32

ORBITAL ENERGIES
----------------

  NO   OCC          E(Eh)            E(eV)
   0   2.0000    -513.110986    -13962.4598
   1   2.0000     -67.261684     -1830.2835
   2   2.0000     -60.809637     -1654.7143
   3   2.0000     -60.809637     -1654.7143
   4   2.0000     -60.809637     -1654.7143
   5   2.0000      -9.724777      -264.6246
   6   2.0000      -7.410871      -201.6601
   7   2.0000      -7.410871      -201.6601
   8   2.0000      -7.410871      -201.6601
   9   2.0000      -3.259026       -88.6826
  10   2.0000      -3.259026       -88.6826
  11   2.0000      -3.259026       -88.6826
  12   2.0000      -3.259021       -88.6825
  13   2.0000      -3.259021       -88.6825
  14   2.0000      -0.898784       -24.4572
  15   2.0000      -0.386909       -10.5283
  16   2.0000      -0.386909       -10.5283
  17   2.0000      -0.386909       -10.5283
  18   0.0000       0.360531         9.8106
  19   0.0000       0.554649        15.0928
  20   0.0000       0.554649        15.0928
  21   0.0000       0.554649        15.0928
  22   0.0000       0.554649        15.0928

MULLIKEN ATOMIC CHARGES
-----------------------
   0 Kr:    0.000000
Sum of atomic charges:    0.0000000

LOEWDIN ATOMIC CHARGES
----------------------
   0 Kr:   -0.000000

FINAL SINGLE POINT ENERGY     -2753.121477942374

DIPOLE MOMENT
-------------
                                X             Y             Z
Electronic contribution:     -0.00000      -0.00000      -0.00000
Nuclear contribution   :      0.00000       0.00000       0.00000
                        -----------------------------------------
Total Dipole Moment    :     -0.00000      -0.00000      -0.00000
                        -----------------------------------------
Magnitude (a.u.)       :      0.00000
Magnitude (Debye)      :      0.00000

Rotational constants in cm-1:     0.000000     0.000000     0.000000
Rotational constants in MHz :     0.000000     0.000000     0.000000

                             ****ORCA TERMINATED NORMALLY****
TOTAL RUN TIME: 0 days 0 hours 0 minutes 6 seconds 493 msec
