                         Program Version 4.2.1 -  RELEASE  -
|  1> ! PBE0 D3BJ
|  2> ! opt anfreq
|  3> * xyzfile 2 4 V.xyz **                         ****END OF INPUT****
 Total Charge           Charge          ....    2
 Multiplicity           Mult            ....    4
 Number of Electrons    NEL             ....   81
Dispersion correction           -0.014857172
FINAL SINGLE POINT ENERGY     -1400.918450882475
Dispersion correction            ... done
Dispersion correction           -0.014507831
FINAL SINGLE POINT ENERGY     -1400.954652850343
Dispersion correction            ... done
Dispersion correction           -0.014069462
FINAL SINGLE POINT ENERGY     -1400.979968947626
Dispersion correction            ... done
FINAL SINGLE POINT ENERGY     -1400.995328442064
FINAL SINGLE POINT ENERGY     -1401.003914670598
FINAL SINGLE POINT ENERGY     -1401.009115175443
FINAL SINGLE POINT ENERGY     -1401.012768538652
FINAL SINGLE POINT ENERGY     -1401.015595923980
FINAL SINGLE POINT ENERGY     -1401.017947142419
FINAL SINGLE POINT ENERGY     -1401.020031541941
FINAL SINGLE POINT ENERGY     -1401.036519632615
FINAL SINGLE POINT ENERGY     -1401.036525948688
FINAL SINGLE POINT ENERGY     -1401.036529921033
FINAL SINGLE POINT ENERGY     -1401.036542242343
FINAL SINGLE POINT ENERGY     -1401.036545080606
FINAL SINGLE POINT ENERGY     -1401.036547107549
FINAL SINGLE POINT ENERGY     -1401.036550355064
Dispersion correction           -0.012827181
FINAL SINGLE POINT ENERGY     -1401.036553060012
Dispersion correction            ... done
Dispersion correction           -0.012827490
FINAL SINGLE POINT ENERGY     -1401.036554843310
Dispersion correction            ... done
                    ***********************HURRAY********************

CARTESIAN COORDINATES (ANGSTROEM)
---------------------------------
  V     -3.980875    1.289715    0.060208
  O     -3.972310    3.361033   -0.462505
  O     -3.993848   -0.780874    0.585547
  O     -1.921917    1.407449    0.619142
  O     -6.038506    1.172517   -0.498659
  O     -4.540522    1.797017    2.058050
  O     -3.428583    0.783616   -1.940582
  H     -4.719300    3.868218   -0.809472
  H     -4.740175   -1.392402    0.517282
  H     -1.576985    1.639370    1.492489
  H     -6.806170    1.321278    0.070537
  H     -4.695918    2.686513    2.404606
  H     -3.258509    1.401998   -2.664623
  H     -6.381782    0.934322   -1.370955
  H     -3.227416    3.974308   -0.394276
  H     -3.264776   -0.103165   -2.290188
  H     -1.154748    1.262610    0.048243
  H     -3.247833   -1.290986    0.930367
  H     -4.712647    1.182992    2.785290

 Multiplicity           Mult            ....    4
 Number of Electrons    NEL             ....   81
 Basis Dimension        Dim             ....  175

ORBITAL ENERGIES
----------------
                 SPIN UP ORBITALS
  NO   OCC          E(Eh)            E(eV)
   0   1.0000    -197.334446     -5369.7433
   1   1.0000     -22.571269      -614.1954
   2   1.0000     -19.545511      -531.8604
   3   1.0000     -19.545426      -531.8581
   4   1.0000     -19.545416      -531.8578
   5   1.0000     -19.545326      -531.8554
   6   1.0000     -19.545313      -531.8550
   7   1.0000     -19.545219      -531.8524
   8   1.0000     -19.045720      -518.2604
   9   1.0000     -19.045701      -518.2599
  10   1.0000     -19.045682      -518.2593
  11   1.0000      -2.942395       -80.0666
  12   1.0000      -1.966722       -53.5172
  13   1.0000      -1.966663       -53.5156
  14   1.0000      -1.966627       -53.5146
  15   1.0000      -1.355765       -36.8922
  16   1.0000      -1.349000       -36.7082
  17   1.0000      -1.348896       -36.7053
  18   1.0000      -1.348830       -36.7035
  19   1.0000      -1.348445       -36.6930
  20   1.0000      -1.348423       -36.6925
  21   1.0000      -0.873381       -23.7659
  22   1.0000      -0.873228       -23.7618
  23   1.0000      -0.873046       -23.7568
  24   1.0000      -0.872191       -23.7335
  25   1.0000      -0.872086       -23.7307
  26   1.0000      -0.872006       -23.7285
  27   1.0000      -0.798986       -21.7415
  28   1.0000      -0.765998       -20.8439
  29   1.0000      -0.765959       -20.8428
  30   1.0000      -0.757006       -20.5992
  31   1.0000      -0.756462       -20.5844
  32   1.0000      -0.756162       -20.5762
  33   1.0000      -0.666992       -18.1498
  34   1.0000      -0.666694       -18.1417
  35   1.0000      -0.666381       -18.1331
  36   1.0000      -0.660406       -17.9706
  37   1.0000      -0.660161       -17.9639
  38   1.0000      -0.659676       -17.9507
  39   1.0000      -0.490903       -13.3582
  40   1.0000      -0.490694       -13.3525
  41   1.0000      -0.490595       -13.3498
  42   0.0000      -0.285050        -7.7566
  43   0.0000      -0.258675        -7.0389
  44   0.0000      -0.258505        -7.0343
  45   0.0000      -0.220719        -6.0061
  46   0.0000      -0.220527        -6.0008

                 SPIN DOWN ORBITALS
  NO   OCC          E(Eh)            E(eV)
   0   1.0000    -197.334216     -5369.7370
   1   1.0000     -22.532608      -613.1434
   2   1.0000     -19.545500      -531.8601
   3   1.0000     -19.545427      -531.8581
   4   1.0000     -19.545412      -531.8577
   5   1.0000     -19.545322      -531.8553
   6   1.0000     -19.545303      -531.8547
   7   1.0000     -19.545214      -531.8523
   8   1.0000     -19.012724      -517.3625
   9   1.0000     -19.012675      -517.3612
  10   1.0000     -19.012623      -517.3598
  11   1.0000      -2.821553       -76.7784
  12   1.0000      -1.835399       -49.9438
  13   1.0000      -1.835237       -49.9393
  14   1.0000      -1.835066       -49.9347
  15   1.0000      -1.355073       -36.8734
  16   1.0000      -1.348251       -36.6878
  17   1.0000      -1.348157       -36.6852
  18   1.0000      -1.348087       -36.6833
  19   1.0000      -1.347999       -36.6809
  20   1.0000      -1.347970       -36.6801
  21   1.0000      -0.872234       -23.7347
  22   1.0000      -0.872083       -23.7306
  23   1.0000      -0.871916       -23.7260
  24   1.0000      -0.871588       -23.7171
  25   1.0000      -0.871490       -23.7144
  26   1.0000      -0.871420       -23.7125
  27   1.0000      -0.794910       -21.6306
  28   1.0000      -0.764153       -20.7937
  29   1.0000      -0.764099       -20.7922
  30   1.0000      -0.756434       -20.5836
  31   1.0000      -0.755925       -20.5698
  32   1.0000      -0.755616       -20.5613
  33   1.0000      -0.661068       -17.9886
  34   1.0000      -0.660804       -17.9814
  35   1.0000      -0.660526       -17.9738
  36   1.0000      -0.658240       -17.9116
  37   1.0000      -0.658011       -17.9054
  38   1.0000      -0.657561       -17.8931
  39   0.0000      -0.283117        -7.7040
  40   0.0000      -0.228692        -6.2230
  41   0.0000      -0.228508        -6.2180
  42   0.0000      -0.228044        -6.2054
  43   0.0000      -0.220907        -6.0112

MULLIKEN ATOMIC CHARGES AND SPIN POPULATIONS
--------------------------------------------
   0 V :    0.916229    3.044385
   1 O :   -0.292721   -0.011052
   2 O :   -0.292619   -0.011041
   3 O :   -0.292702   -0.011163
   4 O :   -0.292649   -0.011196
   5 O :   -0.292534   -0.011244
   6 O :   -0.292636   -0.011257
   7 H :    0.236752    0.001935
   8 H :    0.236464    0.001865
   9 H :    0.236510    0.001900
  10 H :    0.236861    0.001823
  11 H :    0.236135    0.001895
  12 H :    0.236927    0.001861
  13 H :    0.236476    0.001900
  14 H :    0.236586    0.001871
  15 H :    0.236342    0.001897
  16 H :    0.236814    0.001820
  17 H :    0.236735    0.001942
  18 H :    0.237029    0.001860
Sum of atomic charges         :    2.0000000

LOEWDIN ATOMIC CHARGES AND SPIN POPULATIONS
-------------------------------------------
   0 V :    0.321760    2.972583
   1 O :    0.019406    0.000649
   2 O :    0.019384    0.000659
   3 O :    0.019220    0.000538
   4 O :    0.019626    0.000535
   5 O :    0.019564    0.000545
   6 O :    0.019404    0.000524
   7 H :    0.130112    0.002025
   8 H :    0.130082    0.001980
   9 H :    0.130068    0.002014
  10 H :    0.130261    0.001967
  11 H :    0.129967    0.002013
  12 H :    0.130193    0.001983
  13 H :    0.129986    0.002016
  14 H :    0.130127    0.001985
  15 H :    0.130128    0.002008
  16 H :    0.130266    0.001967
  17 H :    0.130148    0.002031
  18 H :    0.130298    0.001977

  Mayer bond orders larger than 0.100000
B(  0-V ,  1-O ) :   0.3314 B(  0-V ,  2-O ) :   0.3315 B(  0-V ,  3-O ) :   0.3312
B(  0-V ,  4-O ) :   0.3315 B(  0-V ,  5-O ) :   0.3314 B(  0-V ,  6-O ) :   0.3312
B(  1-O ,  7-H ) :   0.9480 B(  1-O , 14-H ) :   0.9484 B(  2-O ,  8-H ) :   0.9484
B(  2-O , 17-H ) :   0.9481 B(  3-O ,  9-H ) :   0.9480 B(  3-O , 16-H ) :   0.9484
B(  4-O , 10-H ) :   0.9483 B(  4-O , 13-H ) :   0.9479 B(  5-O , 11-H ) :   0.9484
B(  5-O , 18-H ) :   0.9482 B(  6-O , 12-H ) :   0.9482 B(  6-O , 15-H ) :   0.9484

Dispersion correction           -0.012827664
FINAL SINGLE POINT ENERGY     -1401.036555551758

DIPOLE MOMENT
-------------
                                X             Y             Z
Electronic contribution:      0.01148      -0.00411       0.00110
Nuclear contribution   :     -0.00721       0.00596      -0.00269
                        -----------------------------------------
Total Dipole Moment    :      0.00427       0.00185      -0.00159
                        -----------------------------------------
Magnitude (a.u.)       :      0.00492
Magnitude (Debye)      :      0.01251

Dispersion correction in the Hessian             ... done   (     16.5 sec)

VIBRATIONAL FREQUENCIES
-----------------------

Scaling factor for frequencies =  1.000000000  (already applied!)

   0:         0.00 cm**-1
   1:         0.00 cm**-1
   2:         0.00 cm**-1
   3:         0.00 cm**-1
   4:         0.00 cm**-1
   5:         0.00 cm**-1
   6:        69.62 cm**-1
   7:        71.44 cm**-1
   8:        72.33 cm**-1
   9:        99.97 cm**-1
  10:       102.11 cm**-1
  11:       102.89 cm**-1
  12:       130.99 cm**-1
  13:       131.64 cm**-1
  14:       132.56 cm**-1
  15:       205.80 cm**-1
  16:       212.43 cm**-1
  17:       254.58 cm**-1
  18:       258.99 cm**-1
  19:       259.88 cm**-1
  20:       314.00 cm**-1
  21:       314.52 cm**-1
  22:       336.73 cm**-1
  23:       338.61 cm**-1
  24:       343.24 cm**-1
  25:       344.72 cm**-1
  26:       345.84 cm**-1
  27:       347.26 cm**-1
  28:       349.32 cm**-1
  29:       385.89 cm**-1
  30:       387.59 cm**-1
  31:       388.13 cm**-1
  32:       390.17 cm**-1
  33:       520.01 cm**-1
  34:       520.43 cm**-1
  35:       521.64 cm**-1
  36:       561.76 cm**-1
  37:       562.22 cm**-1
  38:       563.06 cm**-1
  39:      1629.91 cm**-1
  40:      1630.74 cm**-1
  41:      1631.33 cm**-1
  42:      1632.68 cm**-1
  43:      1633.50 cm**-1
  44:      1638.26 cm**-1
  45:      3824.08 cm**-1
  46:      3824.35 cm**-1
  47:      3825.13 cm**-1
  48:      3825.79 cm**-1
  49:      3825.89 cm**-1
  50:      3834.27 cm**-1
  51:      3905.54 cm**-1
  52:      3906.19 cm**-1
  53:      3906.35 cm**-1
  54:      3906.60 cm**-1
  55:      3906.93 cm**-1
  56:      3907.29 cm**-1

IR SPECTRUM
-----------

 Mode    freq (cm**-1)   T**2         TX         TY         TZ
-------------------------------------------------------------------
   6:        69.62    0.000007  (  0.000148  -0.002668  -0.000036)
   7:        71.44    0.002236  ( -0.019563   0.028309   0.032427)
   8:        72.33    0.001040  ( -0.002357  -0.002506   0.032060)
   9:        99.97   10.497548  ( -2.335219   1.260967  -1.858565)
  10:       102.11   10.242475  (  0.555133   2.831212   1.385114)
  11:       102.89   10.092386  ( -2.170262  -0.621105   2.235302)
  12:       130.99    0.017487  (  0.130166  -0.002503  -0.023198)
  13:       131.64    0.033317  ( -0.104955   0.084311  -0.123262)
  14:       132.56    0.024235  (  0.015753   0.000777   0.154875)
  15:       205.80    0.065409  (  0.126355   0.207466  -0.080009)
  16:       212.43    0.255319  ( -0.184336   0.459327   0.101771)
  17:       254.58    0.025255  ( -0.146262   0.035763  -0.050825)
  18:       258.99    0.008504  (  0.031185  -0.082569   0.026712)
  19:       259.88    0.008919  (  0.043002  -0.003381   0.084016)
  20:       314.00    0.000598  (  0.007859   0.022078   0.007013)
  21:       314.52    0.001496  (  0.020044   0.032097   0.007974)
  22:       336.73    0.461842  ( -0.128881  -0.254411  -0.616852)
  23:       338.61    0.709022  ( -0.569615  -0.566345  -0.252613)
  24:       343.24   19.399631  ( -1.255896   1.328427   4.007198)
  25:       344.72  417.130596  (  1.006710  -5.284374 -19.702602)
  26:       345.84    1.638187  (  1.279681   0.023755  -0.006275)
  27:       347.26  422.754732  (-20.456310   0.971161  -1.830561)
  28:       349.32  420.125609  ( -1.005491 -19.678805   5.644400)
  29:       385.89   11.539556  ( -1.251259  -2.516994   1.907524)
  30:       387.59   44.408322  ( -0.131795  -5.507926  -3.748827)
  31:       388.13   44.118102  ( -6.584047  -0.430372   0.763683)
  32:       390.17   47.780096  (  1.573475  -3.886141   5.495651)
  33:       520.01    0.005094  ( -0.038276   0.056799  -0.020072)
  34:       520.43    0.008957  ( -0.004363   0.000060   0.094542)
  35:       521.64    0.007417  (  0.002102   0.044104  -0.073939)
  36:       561.76  290.975113  ( 10.360009   6.584526 -11.844381)
  37:       562.22  289.211425  ( 12.090575 -11.119549   4.402845)
  38:       563.06  288.933289  ( -6.005168 -11.172454 -11.315808)
  39:      1629.91  204.934783  (  1.516392  13.941281  -2.876809)
  40:      1630.74  202.726168  (-14.077668   1.163084  -1.786807)
  41:      1631.33  204.746299  (  1.760907  -3.109443 -13.855572)
  42:      1632.68    4.098143  ( -1.374216  -1.486284   0.025165)
  43:      1633.50    2.938815  (  1.580836  -0.082741   0.657971)
  44:      1638.26    0.311674  (  0.486468  -0.212955   0.172261)
  45:      3824.08    4.326266  ( -0.031414  -2.040033   0.404405)
  46:      3824.35  293.917103  (  0.227028 -16.569148   4.396463)
  47:      3825.13    0.258458  (  0.395994  -0.076977  -0.309389)
  48:      3825.79  297.370140  (-12.995824  -3.195935 -10.874957)
  49:      3825.89  301.061257  (-11.452149   3.107226  12.659174)
  50:      3834.27    0.003723  (  0.043238  -0.007054   0.042473)
  51:      3905.54   18.699004  ( -4.176322  -0.252897  -1.092422)
  52:      3906.19  409.225437  ( 19.532414   0.947793   5.178023)
  53:      3906.35    1.912642  (  1.156621  -0.695692   0.301470)
  54:      3906.60   33.502016  ( -1.166471   1.008235   5.578963)
  55:      3906.93  427.815861  ( -0.752343 -19.802088   5.926816)
  56:      3907.29  397.315917  (  5.256558  -6.110616 -18.230329)

--------------------------
THERMOCHEMISTRY AT 298.15K
--------------------------

Temperature         ... 298.15 K
Pressure            ... 1.00 atm
Total Mass          ... 159.03 AMU

Throughout the following assumptions are being made:
  (1) The electronic state is orbitally nondegenerate
      but the spin degeneracy is treated
  (2) There are no thermally accessible electronically excited states
  (3) Hindered rotations indicated by low frequency modes are not
      treated as such but are treated as vibrations and this may
      cause some error
  (4) All equations used are the standard statistical mechanics
      equations for an ideal gas
  (5) All vibrations are strictly harmonic

freq.      69.62  E(vib)   ...       0.50
freq.      71.44  E(vib)   ...       0.50
freq.      72.33  E(vib)   ...       0.50
freq.      99.97  E(vib)   ...       0.46
freq.     102.11  E(vib)   ...       0.46
freq.     102.89  E(vib)   ...       0.46
freq.     130.99  E(vib)   ...       0.42
freq.     131.64  E(vib)   ...       0.42
freq.     132.56  E(vib)   ...       0.42
freq.     205.80  E(vib)   ...       0.35
freq.     212.43  E(vib)   ...       0.34
freq.     254.58  E(vib)   ...       0.30
freq.     258.99  E(vib)   ...       0.30
freq.     259.88  E(vib)   ...       0.30
freq.     314.00  E(vib)   ...       0.25
freq.     314.52  E(vib)   ...       0.25
freq.     336.73  E(vib)   ...       0.24
freq.     338.61  E(vib)   ...       0.23
freq.     343.24  E(vib)   ...       0.23
freq.     344.72  E(vib)   ...       0.23
freq.     345.84  E(vib)   ...       0.23
freq.     347.26  E(vib)   ...       0.23
freq.     349.32  E(vib)   ...       0.23
freq.     385.89  E(vib)   ...       0.20
freq.     387.59  E(vib)   ...       0.20
freq.     388.13  E(vib)   ...       0.20
freq.     390.17  E(vib)   ...       0.20
freq.     520.01  E(vib)   ...       0.13
freq.     520.43  E(vib)   ...       0.13
freq.     521.64  E(vib)   ...       0.13
freq.     561.76  E(vib)   ...       0.11
freq.     562.22  E(vib)   ...       0.11
freq.     563.06  E(vib)   ...       0.11
freq.    1629.91  E(vib)   ...       0.00
freq.    1630.74  E(vib)   ...       0.00
freq.    1631.33  E(vib)   ...       0.00
freq.    1632.68  E(vib)   ...       0.00
freq.    1633.50  E(vib)   ...       0.00
freq.    1638.26  E(vib)   ...       0.00
freq.    3824.08  E(vib)   ...       0.00
freq.    3824.35  E(vib)   ...       0.00
freq.    3825.13  E(vib)   ...       0.00
freq.    3825.79  E(vib)   ...       0.00
freq.    3825.89  E(vib)   ...       0.00
freq.    3834.27  E(vib)   ...       0.00
freq.    3905.54  E(vib)   ...       0.00
freq.    3906.19  E(vib)   ...       0.00
freq.    3906.35  E(vib)   ...       0.00
freq.    3906.60  E(vib)   ...       0.00
freq.    3906.93  E(vib)   ...       0.00
freq.    3907.29  E(vib)   ...       0.00

------------
INNER ENERGY
------------

The inner energy is: U= E(el) + E(ZPE) + E(vib) + E(rot) + E(trans)
    E(el)   - is the total energy from the electronic structure calculation
              = E(kin-el) + E(nuc-el) + E(el-el) + E(nuc-nuc)
    E(ZPE)  - the the zero temperature vibrational energy from the frequency calculation
    E(vib)  - the the finite temperature correction to E(ZPE) due to population
              of excited vibrational states
    E(rot)  - is the rotational thermal energy
    E(trans)- is the translational thermal energy

Summary of contributions to the inner energy U:
Electronic energy                ...  -1401.03655555 Eh
Zero point energy                ...      0.15066706 Eh      94.54 kcal/mol
Thermal vibrational correction   ...      0.01497550 Eh       9.40 kcal/mol
Thermal rotational correction    ...      0.00141627 Eh       0.89 kcal/mol
Thermal translational correction ...      0.00141627 Eh       0.89 kcal/mol
-----------------------------------------------------------------------
Total thermal energy                  -1400.86808045 Eh

Summary of corrections to the electronic energy:
(perhaps to be used in another calculation)
Total thermal correction                  0.01780804 Eh      11.17 kcal/mol
Non-thermal (ZPE) correction              0.15066706 Eh      94.54 kcal/mol
-----------------------------------------------------------------------
Total correction                          0.16847511 Eh     105.72 kcal/mol

--------
ENTHALPY
--------

The enthalpy is H = U + kB*T
                kB is Boltzmann's constant
Total free energy                 ...  -1400.86808045 Eh
Thermal Enthalpy correction       ...      0.00094421 Eh       0.59 kcal/mol
-----------------------------------------------------------------------
Total Enthalpy                    ...  -1400.86713624 Eh

Note: Only C1 symmetry has been detected, increase convergence thresholds
      if your molecule has a higher symmetry. Symmetry factor of 1.0 is
      used for the rotational entropy correction.

Note: Rotational entropy computed according to Herzberg
Infrared and Raman Spectra, Chapter V,1, Van Nostrand Reinhold, 1945
Point Group:  C1, Symmetry Number:   1
Rotational constants in cm-1:     0.047520     0.047305     0.047130

Vibrational entropy computed according to the QRRHO of S. Grimme
Chem.Eur.J. 2012 18 9955

-------
ENTROPY
-------

The entropy contributions are T*S = T*(S(el)+S(vib)+S(rot)+S(trans))
     S(el)   - electronic entropy
     S(vib)  - vibrational entropy
     S(rot)  - rotational entropy
     S(trans)- translational entropy
The entropies will be listed as mutliplied by the temperature to get
units of energy

Electronic entropy                ...      0.00130891 Eh      0.82 kcal/mol
Vibrational entropy               ...      0.02650169 Eh     16.63 kcal/mol
Rotational entropy                ...      0.01383166 Eh      8.68 kcal/mol
Translational entropy             ...      0.01952828 Eh     12.25 kcal/mol
-----------------------------------------------------------------------
Final entropy term                ...      0.06117054 Eh     38.39 kcal/mol

In case the symmetry of your molecule has not been determined correctly
or in case you have a reason to use a different symmetry number we print
out the resulting rotational entropy values for sn=1,12 :
 --------------------------------------------------------
|  sn= 1 | S(rot)=       0.01383166 Eh      8.68 kcal/mol|
|  sn= 2 | S(rot)=       0.01317720 Eh      8.27 kcal/mol|
|  sn= 3 | S(rot)=       0.01279437 Eh      8.03 kcal/mol|
|  sn= 4 | S(rot)=       0.01252274 Eh      7.86 kcal/mol|
|  sn= 5 | S(rot)=       0.01231206 Eh      7.73 kcal/mol|
|  sn= 6 | S(rot)=       0.01213991 Eh      7.62 kcal/mol|
|  sn= 7 | S(rot)=       0.01199437 Eh      7.53 kcal/mol|
|  sn= 8 | S(rot)=       0.01186829 Eh      7.45 kcal/mol|
|  sn= 9 | S(rot)=       0.01175708 Eh      7.38 kcal/mol|
|  sn=10 | S(rot)=       0.01165760 Eh      7.32 kcal/mol|
|  sn=11 | S(rot)=       0.01156761 Eh      7.26 kcal/mol|

                             ****ORCA TERMINATED NORMALLY****
TOTAL RUN TIME: 0 days 4 hours 37 minutes 45 seconds 313 msec
