                         Program Version 4.2.1 -  RELEASE  -
|  1> ! PBE0
|  2> ! opt anfreq
|  3> * xyzfile 0 1 ethanoic_acid.xyz **                         ****END OF INPUT****
 Total Charge           Charge          ....    0
 Multiplicity           Mult            ....    1
 Number of Electrons    NEL             ....   32
FINAL SINGLE POINT ENERGY      -228.638445451351
FINAL SINGLE POINT ENERGY      -228.652311767513
FINAL SINGLE POINT ENERGY      -228.655642983331
FINAL SINGLE POINT ENERGY      -228.656087333569
FINAL SINGLE POINT ENERGY      -228.656140966591
FINAL SINGLE POINT ENERGY      -228.656154098460
                    ***********************HURRAY********************

CARTESIAN COORDINATES (ANGSTROEM)
---------------------------------
  C      0.036357    0.119722    0.000000
  C     -1.325254   -0.534251    0.000000
  O      0.221928    1.300547   -0.000000
  O      1.080057   -0.734064   -0.000000
  H     -2.099135    0.241113   -0.000000
  H     -1.450651   -1.171483    0.890005
  H     -1.450651   -1.171483   -0.890005
  H      0.767638   -1.646181   -0.000000

 Multiplicity           Mult            ....    1
 Number of Electrons    NEL             ....   32
 Basis Dimension        Dim             ....   76

ORBITAL ENERGIES
----------------

  NO   OCC          E(Eh)            E(eV)
   0   2.0000     -19.257139      -524.0134
   1   2.0000     -19.191883      -522.2377
   2   2.0000     -10.363837      -282.0144
   3   2.0000     -10.259125      -279.1650
   4   2.0000      -1.124178       -30.5904
   5   2.0000      -1.038363       -28.2553
   6   2.0000      -0.773673       -21.0527
   7   2.0000      -0.638492       -17.3743
   8   2.0000      -0.533778       -14.5248
   9   2.0000      -0.491322       -13.3696
  10   2.0000      -0.479587       -13.0502
  11   2.0000      -0.434157       -11.8140
  12   2.0000      -0.414313       -11.2740
  13   2.0000      -0.391926       -10.6648
  14   2.0000      -0.334038        -9.0896
  15   2.0000      -0.288399        -7.8477
  16   0.0000       0.016949         0.4612
  17   0.0000       0.038899         1.0585
  18   0.0000       0.097991         2.6665
  19   0.0000       0.128279         3.4907
  20   0.0000       0.133284         3.6268

MULLIKEN ATOMIC CHARGES
-----------------------
   0 C :    0.144577
   1 C :   -0.146232
   2 O :   -0.219343
   3 O :   -0.193420
   4 H :    0.082398
   5 H :    0.076078
   6 H :    0.076078
   7 H :    0.179865
Sum of atomic charges:   -0.0000000

LOEWDIN ATOMIC CHARGES
----------------------
   0 C :    0.072166
   1 C :   -0.113133
   2 O :   -0.158703
   3 O :   -0.042605
   4 H :    0.054109
   5 H :    0.048460
   6 H :    0.048460
   7 H :    0.091246

  Mayer bond orders larger than 0.100000
B(  0-C ,  1-C ) :   1.0115 B(  0-C ,  2-O ) :   2.1364 B(  0-C ,  3-O ) :   1.1636
B(  1-C ,  4-H ) :   0.9587 B(  1-C ,  5-H ) :   0.9535 B(  1-C ,  6-H ) :   0.9535
B(  3-O ,  7-H ) :   0.9626

FINAL SINGLE POINT ENERGY      -228.656155068585

DIPOLE MOMENT
-------------
                                X             Y             Z
Electronic contribution:      3.23032       2.01548       0.00000
Nuclear contribution   :     -4.02006      -3.52723      -0.00000
                        -----------------------------------------
Total Dipole Moment    :     -0.78974      -1.51175       0.00000
                        -----------------------------------------
Magnitude (a.u.)       :      1.70560
Magnitude (Debye)      :      4.33529

VIBRATIONAL FREQUENCIES
-----------------------

Scaling factor for frequencies =  1.000000000  (already applied!)

   0:         0.00 cm**-1
   1:         0.00 cm**-1
   2:         0.00 cm**-1
   3:         0.00 cm**-1
   4:         0.00 cm**-1
   5:         0.00 cm**-1
   6:       103.96 cm**-1
   7:       433.09 cm**-1
   8:       472.84 cm**-1
   9:       598.87 cm**-1
  10:       614.97 cm**-1
  11:       896.33 cm**-1
  12:       982.35 cm**-1
  13:      1044.60 cm**-1
  14:      1208.95 cm**-1
  15:      1321.40 cm**-1
  16:      1390.60 cm**-1
  17:      1439.99 cm**-1
  18:      1454.82 cm**-1
  19:      1938.25 cm**-1
  20:      3061.95 cm**-1
  21:      3149.79 cm**-1
  22:      3212.56 cm**-1
  23:      3872.23 cm**-1

IR SPECTRUM
-----------

 Mode    freq (cm**-1)   T**2         TX         TY         TZ
-------------------------------------------------------------------
   6:       103.96    0.076188  (  0.000000  -0.000001  -0.276021)
   7:       433.09    4.635260  ( -2.040277   0.687407  -0.000001)
   8:       472.84  103.866305  (  0.000002   0.000002  10.191482)
   9:       598.87    2.388969  ( -0.000001  -0.000010   1.545629)
  10:       614.97    7.241979  (  1.956836   1.847369   0.000002)
  11:       896.33   21.265058  ( -1.737876   4.271399   0.000000)
  12:       982.35    2.204098  ( -1.457130   0.284374  -0.000001)
  13:      1044.60    8.076080  (  0.000000   0.000008   2.841844)
  14:      1208.95   17.447619  (  2.556686  -3.303177  -0.000001)
  15:      1321.40  229.597884  (-11.633794   9.708384   0.000002)
  16:      1390.60  230.357836  (-14.471028   4.576808   0.000001)
  17:      1439.99    7.062022  ( -2.229055  -1.446836   0.000001)
  18:      1454.82   11.831567  (  0.000000   0.000001  -3.439704)
  19:      1938.25  292.962156  ( -2.953517 -16.859386  -0.000000)
  20:      3061.95    2.048160  (  0.213534   1.415119  -0.000001)
  21:      3149.79    2.898132  (  0.000001   0.000001  -1.702390)
  22:      3212.56    0.439970  (  0.510601  -0.423387   0.000000)
  23:      3872.23   61.323087  ( -0.099333  -7.830276  -0.000001)

--------------------------
THERMOCHEMISTRY AT 298.15K
--------------------------

Temperature         ... 298.15 K
Pressure            ... 1.00 atm
Total Mass          ... 60.05 AMU

Throughout the following assumptions are being made:
  (1) The electronic state is orbitally nondegenerate
  (2) There are no thermally accessible electronically excited states
  (3) Hindered rotations indicated by low frequency modes are not
      treated as such but are treated as vibrations and this may
      cause some error
  (4) All equations used are the standard statistical mechanics
      equations for an ideal gas
  (5) All vibrations are strictly harmonic

freq.     103.96  E(vib)   ...       0.46
freq.     433.09  E(vib)   ...       0.17
freq.     472.84  E(vib)   ...       0.15
freq.     598.87  E(vib)   ...       0.10
freq.     614.97  E(vib)   ...       0.10
freq.     896.33  E(vib)   ...       0.03
freq.     982.35  E(vib)   ...       0.02
freq.    1044.60  E(vib)   ...       0.02
freq.    1208.95  E(vib)   ...       0.01
freq.    1321.40  E(vib)   ...       0.01
freq.    1390.60  E(vib)   ...       0.00
freq.    1439.99  E(vib)   ...       0.00
freq.    1454.82  E(vib)   ...       0.00
freq.    1938.25  E(vib)   ...       0.00
freq.    3061.95  E(vib)   ...       0.00
freq.    3149.79  E(vib)   ...       0.00
freq.    3212.56  E(vib)   ...       0.00
freq.    3872.23  E(vib)   ...       0.00

------------
INNER ENERGY
------------

The inner energy is: U= E(el) + E(ZPE) + E(vib) + E(rot) + E(trans)
    E(el)   - is the total energy from the electronic structure calculation
              = E(kin-el) + E(nuc-el) + E(el-el) + E(nuc-nuc)
    E(ZPE)  - the the zero temperature vibrational energy from the frequency calculation
    E(vib)  - the the finite temperature correction to E(ZPE) due to population
              of excited vibrational states
    E(rot)  - is the rotational thermal energy
    E(trans)- is the translational thermal energy

Summary of contributions to the inner energy U:
Electronic energy                ...   -228.65615507 Eh
Zero point energy                ...      0.06196060 Eh      38.88 kcal/mol
Thermal vibrational correction   ...      0.00173550 Eh       1.09 kcal/mol
Thermal rotational correction    ...      0.00141627 Eh       0.89 kcal/mol
Thermal translational correction ...      0.00141627 Eh       0.89 kcal/mol
-----------------------------------------------------------------------
Total thermal energy                   -228.58962643 Eh

Summary of corrections to the electronic energy:
(perhaps to be used in another calculation)
Total thermal correction                  0.00456804 Eh       2.87 kcal/mol
Non-thermal (ZPE) correction              0.06196060 Eh      38.88 kcal/mol
-----------------------------------------------------------------------
Total correction                          0.06652864 Eh      41.75 kcal/mol

--------
ENTHALPY
--------

The enthalpy is H = U + kB*T
                kB is Boltzmann's constant
Total free energy                 ...   -228.58962643 Eh
Thermal Enthalpy correction       ...      0.00094421 Eh       0.59 kcal/mol
-----------------------------------------------------------------------
Total Enthalpy                    ...   -228.58868222 Eh

Note: Rotational entropy computed according to Herzberg
Infrared and Raman Spectra, Chapter V,1, Van Nostrand Reinhold, 1945
Point Group:  Cs, Symmetry Number:   1
Rotational constants in cm-1:     0.369273     0.322936     0.178089

Vibrational entropy computed according to the QRRHO of S. Grimme
Chem.Eur.J. 2012 18 9955

-------
ENTROPY
-------

The entropy contributions are T*S = T*(S(el)+S(vib)+S(rot)+S(trans))
     S(el)   - electronic entropy
     S(vib)  - vibrational entropy
     S(rot)  - rotational entropy
     S(trans)- translational entropy
The entropies will be listed as mutliplied by the temperature to get
units of energy

Electronic entropy                ...      0.00000000 Eh      0.00 kcal/mol
Vibrational entropy               ...      0.00285692 Eh      1.79 kcal/mol
Rotational entropy                ...      0.01132930 Eh      7.11 kcal/mol
Translational entropy             ...      0.01814900 Eh     11.39 kcal/mol
-----------------------------------------------------------------------
Final entropy term                ...      0.03233522 Eh     20.29 kcal/mol

In case the symmetry of your molecule has not been determined correctly
or in case you have a reason to use a different symmetry number we print
out the resulting rotational entropy values for sn=1,12 :
 --------------------------------------------------------
|  sn= 1 | S(rot)=       0.01132930 Eh      7.11 kcal/mol|
|  sn= 2 | S(rot)=       0.01067484 Eh      6.70 kcal/mol|
|  sn= 3 | S(rot)=       0.01029201 Eh      6.46 kcal/mol|
|  sn= 4 | S(rot)=       0.01002039 Eh      6.29 kcal/mol|
|  sn= 5 | S(rot)=       0.00980970 Eh      6.16 kcal/mol|
|  sn= 6 | S(rot)=       0.00963755 Eh      6.05 kcal/mol|
|  sn= 7 | S(rot)=       0.00949201 Eh      5.96 kcal/mol|
|  sn= 8 | S(rot)=       0.00936593 Eh      5.88 kcal/mol|
|  sn= 9 | S(rot)=       0.00925472 Eh      5.81 kcal/mol|
|  sn=10 | S(rot)=       0.00915524 Eh      5.74 kcal/mol|
|  sn=11 | S(rot)=       0.00906525 Eh      5.69 kcal/mol|
|  sn=12 | S(rot)=       0.00898310 Eh      5.64 kcal/mol|
 --------------------------------------------------------

-------------------
GIBBS FREE ENERGY
-------------------

The Gibbs free energy is G = H - T*S

Total enthalpy                    ...   -228.58868222 Eh
Total entropy correction          ...     -0.03233522 Eh    -20.29 kcal/mol
-----------------------------------------------------------------------
Final Gibbs free energy         ...   -228.62101744 Eh

For completeness - the Gibbs free energy minus the electronic energy
G-E(el)                           ...      0.03513763 Eh     22.05 kcal/mol

                             ****ORCA TERMINATED NORMALLY****
TOTAL RUN TIME: 0 days 0 hours 3 minutes 39 seconds 156 msec
